 Entering Gaussian System, Link 0=g16
 Input=product_S_opt.com
 Output=product_S_opt.log
 Initial command:
 /usr/public/gaussian//g16/l1.exe "/gsfs0/data/xuhq/Gau-63965.inp" -scrdir="/gsfs0/data/xuhq/"
 Entering Link 1 = /usr/public/gaussian//g16/l1.exe PID=     63967.
  
 Copyright (c) 1988,1990,1992,1993,1995,1998,2003,2009,2016,
            Gaussian, Inc.  All Rights Reserved.
  
 This is part of the Gaussian(R) 16 program.  It is based on
 the Gaussian(R) 09 system (copyright 2009, Gaussian, Inc.),
 the Gaussian(R) 03 system (copyright 2003, Gaussian, Inc.),
 the Gaussian(R) 98 system (copyright 1998, Gaussian, Inc.),
 the Gaussian(R) 94 system (copyright 1995, Gaussian, Inc.),
 the Gaussian 92(TM) system (copyright 1992, Gaussian, Inc.),
 the Gaussian 90(TM) system (copyright 1990, Gaussian, Inc.),
 the Gaussian 88(TM) system (copyright 1988, Gaussian, Inc.),
 the Gaussian 86(TM) system (copyright 1986, Carnegie Mellon
 University), and the Gaussian 82(TM) system (copyright 1983,
 Carnegie Mellon University). Gaussian is a federally registered
 trademark of Gaussian, Inc.
  
 This software contains proprietary and confidential information,
 including trade secrets, belonging to Gaussian, Inc.
  
 This software is provided under written license and may be
 used, copied, transmitted, or stored only in accord with that
 written license.
  
 The following legend is applicable only to US Government
 contracts under FAR:
  
                    RESTRICTED RIGHTS LEGEND
  
 Use, reproduction and disclosure by the US Government is
 subject to restrictions as set forth in subparagraphs (a)
 and (c) of the Commercial Computer Software - Restricted
 Rights clause in FAR 52.227-19.
  
 Gaussian, Inc.
 340 Quinnipiac St., Bldg. 40, Wallingford CT 06492
  
  
 ---------------------------------------------------------------
 Warning -- This program may not be used in any manner that
 competes with the business of Gaussian, Inc. or will provide
 assistance to any competitor of Gaussian, Inc.  The licensee
 of this program is prohibited from giving any competitor of
 Gaussian, Inc. access to this program.  By using this program,
 the user acknowledges that Gaussian, Inc. is engaged in the
 business of creating and licensing software in the field of
 computational chemistry and represents and warrants to the
 licensee that it is not a competitor of Gaussian, Inc. and that
 it will not use this program in any manner prohibited above.
 ---------------------------------------------------------------
  

 Cite this work as:
 Gaussian 16, Revision A.03,
 M. J. Frisch, G. W. Trucks, H. B. Schlegel, G. E. Scuseria, 
 M. A. Robb, J. R. Cheeseman, G. Scalmani, V. Barone, 
 G. A. Petersson, H. Nakatsuji, X. Li, M. Caricato, A. V. Marenich, 
 J. Bloino, B. G. Janesko, R. Gomperts, B. Mennucci, H. P. Hratchian, 
 J. V. Ortiz, A. F. Izmaylov, J. L. Sonnenberg, D. Williams-Young, 
 F. Ding, F. Lipparini, F. Egidi, J. Goings, B. Peng, A. Petrone, 
 T. Henderson, D. Ranasinghe, V. G. Zakrzewski, J. Gao, N. Rega, 
 G. Zheng, W. Liang, M. Hada, M. Ehara, K. Toyota, R. Fukuda, 
 J. Hasegawa, M. Ishida, T. Nakajima, Y. Honda, O. Kitao, H. Nakai, 
 T. Vreven, K. Throssell, J. A. Montgomery, Jr., J. E. Peralta, 
 F. Ogliaro, M. J. Bearpark, J. J. Heyd, E. N. Brothers, K. N. Kudin, 
 V. N. Staroverov, T. A. Keith, R. Kobayashi, J. Normand, 
 K. Raghavachari, A. P. Rendell, J. C. Burant, S. S. Iyengar, 
 J. Tomasi, M. Cossi, J. M. Millam, M. Klene, C. Adamo, R. Cammi, 
 J. W. Ochterski, R. L. Martin, K. Morokuma, O. Farkas, 
 J. B. Foresman, and D. J. Fox, Gaussian, Inc., Wallingford CT, 2016.
 
 ******************************************
 Gaussian 16:  ES64L-G16RevA.03 25-Dec-2016
                13-Jun-2021 
 ******************************************
 %mem=120gb
 %nprocshared=28
 Will use up to   28 processors via shared memory.
 %chk=product_S_opt.chk
 ------------------------
 #p bp86/6-311G* opt freq
 ------------------------
 1/18=20,19=15,26=3,38=1/1,3;
 2/9=110,12=2,17=6,18=5,40=1/2;
 3/5=4,6=6,7=1,11=2,25=1,30=1,71=1,74=404/1,2,3;
 4//1;
 5/5=2,38=5/2;
 6/7=2,8=2,9=2,10=2,28=1/1;
 7//1,2,3,16;
 1/18=20,19=15,26=3/3(2);
 2/9=110/2;
 99//99;
 2/9=110/2;
 3/5=4,6=6,7=1,11=2,25=1,30=1,71=1,74=404/1,2,3;
 4/5=5,16=3,69=1/1;
 5/5=2,38=5/2;
 7//1,2,3,16;
 1/18=20,19=15,26=3/3(-5);
 2/9=110/2;
 6/7=2,8=2,9=2,10=2,19=2,28=1/1;
 99/9=1/99;
 Leave Link    1 at Sun Jun 13 18:02:46 2021, MaxMem= 16106127360 cpu:               3.0 elap:               0.1
 (Enter /usr/public/gaussian//g16/l101.exe)
 -------
 comment
 -------
 Symbolic Z-matrix:
 Charge =  0 Multiplicity = 1
 C                    -5.18064  -1.74049   0.50998 
 C                    -4.18307  -0.8226    0.16719 
 C                    -2.89912  -1.27086  -0.20783 
 C                    -2.64444  -2.6534   -0.23086 
 C                    -3.64593  -3.56648   0.11251 
 C                    -4.91268  -3.11057   0.48291 
 H                    -6.16293  -1.38842   0.79774 
 H                    -4.42035   0.23242   0.19966 
 H                    -1.66957  -3.02756  -0.51673 
 H                    -3.43926  -4.6287    0.09127 
 H                    -5.68665  -3.81888   0.74896 
 C                    -1.78559  -0.31176  -0.58381 
 C                    -0.41696  -0.47711   0.15584 
 H                     0.1262   -1.37933  -0.19821 
 H                    -0.66114  -0.65907   1.22462 
 N                     0.4119    0.73845   0.12328 
 S                    -0.78398   1.98608  -0.16622 
 N                    -2.22182   1.10154  -0.6514 
 O                    -0.35311   2.98194  -1.25658 
 O                    -1.06306   2.75637   1.13256 
 C                     1.44949   0.71928  -0.92249 
 C                     2.54248  -0.25557  -0.56466 
 H                     1.9184    1.72445  -0.99439 
 H                     1.01737   0.47399  -1.91372 
 C                     2.8572   -1.32472  -1.42106 
 C                     3.87176  -2.2247   -1.08033 
 C                     3.259    -0.10111   0.63418 
 C                     4.27203  -1.00399   0.97136 
 C                     4.57822  -2.06494   0.11488 
 H                     5.36273  -2.76294   0.37719 
 H                     4.81958  -0.88111   1.89686 
 H                     2.31883  -1.4632   -2.35038 
 H                     4.11005  -3.0465   -1.74316 
 H                     3.03113   0.71686   1.30653 
 C                    -1.93582   0.33121  -1.89172 
 H                    -2.89751   0.1781   -2.42623 
 H                    -1.08554   0.76825  -2.44904 
 
 ITRead=  0  0  0  0  0  0  0  0  0  0  0  0  0  0  0  0  0  0  0  0
 ITRead=  0  0  0  0  0  0  0  0  0  0  0  0  0  0  0  0  0
 MicOpt= -1 -1 -1 -1 -1 -1 -1 -1 -1 -1 -1 -1 -1 -1 -1 -1 -1 -1 -1 -1
 MicOpt= -1 -1 -1 -1 -1 -1 -1 -1 -1 -1 -1 -1 -1 -1 -1 -1 -1
 NAtoms=     37 NQM=       37 NQMF=       0 NMMI=      0 NMMIF=      0
                NMic=       0 NMicF=      0.
                    Isotopes and Nuclear Properties:
 (Nuclear quadrupole moments (NQMom) in fm**2, nuclear magnetic moments (NMagM)
  in nuclear magnetons)

  Atom         1           2           3           4           5           6           7           8           9          10
 IAtWgt=          12          12          12          12          12          12           1           1           1           1
 AtmWgt=  12.0000000  12.0000000  12.0000000  12.0000000  12.0000000  12.0000000   1.0078250   1.0078250   1.0078250   1.0078250
 NucSpn=           0           0           0           0           0           0           1           1           1           1
 AtZEff=  -0.0000000  -0.0000000  -0.0000000  -0.0000000  -0.0000000  -0.0000000  -0.0000000  -0.0000000  -0.0000000  -0.0000000
 NQMom=    0.0000000   0.0000000   0.0000000   0.0000000   0.0000000   0.0000000   0.0000000   0.0000000   0.0000000   0.0000000
 NMagM=    0.0000000   0.0000000   0.0000000   0.0000000   0.0000000   0.0000000   2.7928460   2.7928460   2.7928460   2.7928460
 AtZNuc=   6.0000000   6.0000000   6.0000000   6.0000000   6.0000000   6.0000000   1.0000000   1.0000000   1.0000000   1.0000000

  Atom        11          12          13          14          15          16          17          18          19          20
 IAtWgt=           1          12          12           1           1          14          32          14          16          16
 AtmWgt=   1.0078250  12.0000000  12.0000000   1.0078250   1.0078250  14.0030740  31.9720718  14.0030740  15.9949146  15.9949146
 NucSpn=           1           0           0           1           1           2           0           2           0           0
 AtZEff=  -0.0000000  -0.0000000  -0.0000000  -0.0000000  -0.0000000  -0.0000000  -0.0000000  -0.0000000  -0.0000000  -0.0000000
 NQMom=    0.0000000   0.0000000   0.0000000   0.0000000   0.0000000   2.0440000   0.0000000   2.0440000   0.0000000   0.0000000
 NMagM=    2.7928460   0.0000000   0.0000000   2.7928460   2.7928460   0.4037610   0.0000000   0.4037610   0.0000000   0.0000000
 AtZNuc=   1.0000000   6.0000000   6.0000000   1.0000000   1.0000000   7.0000000  16.0000000   7.0000000   8.0000000   8.0000000

  Atom        21          22          23          24          25          26          27          28          29          30
 IAtWgt=          12          12           1           1          12          12          12          12          12           1
 AtmWgt=  12.0000000  12.0000000   1.0078250   1.0078250  12.0000000  12.0000000  12.0000000  12.0000000  12.0000000   1.0078250
 NucSpn=           0           0           1           1           0           0           0           0           0           1
 AtZEff=  -0.0000000  -0.0000000  -0.0000000  -0.0000000  -0.0000000  -0.0000000  -0.0000000  -0.0000000  -0.0000000  -0.0000000
 NQMom=    0.0000000   0.0000000   0.0000000   0.0000000   0.0000000   0.0000000   0.0000000   0.0000000   0.0000000   0.0000000
 NMagM=    0.0000000   0.0000000   2.7928460   2.7928460   0.0000000   0.0000000   0.0000000   0.0000000   0.0000000   2.7928460
 AtZNuc=   6.0000000   6.0000000   1.0000000   1.0000000   6.0000000   6.0000000   6.0000000   6.0000000   6.0000000   1.0000000

  Atom        31          32          33          34          35          36          37
 IAtWgt=           1           1           1           1          12           1           1
 AtmWgt=   1.0078250   1.0078250   1.0078250   1.0078250  12.0000000   1.0078250   1.0078250
 NucSpn=           1           1           1           1           0           1           1
 AtZEff=  -0.0000000  -0.0000000  -0.0000000  -0.0000000  -0.0000000  -0.0000000  -0.0000000
 NQMom=    0.0000000   0.0000000   0.0000000   0.0000000   0.0000000   0.0000000   0.0000000
 NMagM=    2.7928460   2.7928460   2.7928460   2.7928460   0.0000000   2.7928460   2.7928460
 AtZNuc=   1.0000000   1.0000000   1.0000000   1.0000000   6.0000000   1.0000000   1.0000000
 Leave Link  101 at Sun Jun 13 18:02:47 2021, MaxMem= 16106127360 cpu:              17.8 elap:               0.8
 (Enter /usr/public/gaussian//g16/l103.exe)

 GradGradGradGradGradGradGradGradGradGradGradGradGradGradGradGradGradGrad
 Berny optimization.
 Initialization pass.
                           ----------------------------
                           !    Initial Parameters    !
                           ! (Angstroms and Degrees)  !
 --------------------------                            --------------------------
 ! Name  Definition              Value          Derivative Info.                !
 --------------------------------------------------------------------------------
 ! R1    R(1,2)                  1.3983         estimate D2E/DX2                !
 ! R2    R(1,6)                  1.3963         estimate D2E/DX2                !
 ! R3    R(1,7)                  1.0824         estimate D2E/DX2                !
 ! R4    R(2,3)                  1.4107         estimate D2E/DX2                !
 ! R5    R(2,8)                  1.0819         estimate D2E/DX2                !
 ! R6    R(3,4)                  1.406          estimate D2E/DX2                !
 ! R7    R(3,12)                 1.517          estimate D2E/DX2                !
 ! R8    R(4,5)                  1.3981         estimate D2E/DX2                !
 ! R9    R(4,9)                  1.0826         estimate D2E/DX2                !
 ! R10   R(5,6)                  1.3963         estimate D2E/DX2                !
 ! R11   R(5,10)                 1.0823         estimate D2E/DX2                !
 ! R12   R(6,11)                 1.0824         estimate D2E/DX2                !
 ! R13   R(12,13)                1.5645         estimate D2E/DX2                !
 ! R14   R(12,18)                1.4806         estimate D2E/DX2                !
 ! R15   R(12,35)                1.4651         estimate D2E/DX2                !
 ! R16   R(13,14)                1.111          estimate D2E/DX2                !
 ! R17   R(13,15)                1.1113         estimate D2E/DX2                !
 ! R18   R(13,16)                1.4716         estimate D2E/DX2                !
 ! R19   R(16,17)                1.7523         estimate D2E/DX2                !
 ! R20   R(16,21)                1.4733         estimate D2E/DX2                !
 ! R21   R(17,18)                1.7565         estimate D2E/DX2                !
 ! R22   R(17,19)                1.5383         estimate D2E/DX2                !
 ! R23   R(17,20)                1.5356         estimate D2E/DX2                !
 ! R24   R(18,35)                1.4878         estimate D2E/DX2                !
 ! R25   R(21,22)                1.5076         estimate D2E/DX2                !
 ! R26   R(21,23)                1.1115         estimate D2E/DX2                !
 ! R27   R(21,24)                1.1088         estimate D2E/DX2                !
 ! R28   R(22,25)                1.4055         estimate D2E/DX2                !
 ! R29   R(22,27)                1.4052         estimate D2E/DX2                !
 ! R30   R(25,26)                1.3984         estimate D2E/DX2                !
 ! R31   R(25,32)                1.0829         estimate D2E/DX2                !
 ! R32   R(26,29)                1.3975         estimate D2E/DX2                !
 ! R33   R(26,33)                1.0823         estimate D2E/DX2                !
 ! R34   R(27,28)                1.3983         estimate D2E/DX2                !
 ! R35   R(27,34)                1.0831         estimate D2E/DX2                !
 ! R36   R(28,29)                1.3975         estimate D2E/DX2                !
 ! R37   R(28,31)                1.0823         estimate D2E/DX2                !
 ! R38   R(29,30)                1.0823         estimate D2E/DX2                !
 ! R39   R(35,36)                1.1109         estimate D2E/DX2                !
 ! R40   R(35,37)                1.1066         estimate D2E/DX2                !
 ! A1    A(2,1,6)              120.1624         estimate D2E/DX2                !
 ! A2    A(2,1,7)              119.9395         estimate D2E/DX2                !
 ! A3    A(6,1,7)              119.8981         estimate D2E/DX2                !
 ! A4    A(1,2,3)              120.3915         estimate D2E/DX2                !
 ! A5    A(1,2,8)              118.4458         estimate D2E/DX2                !
 ! A6    A(3,2,8)              121.1626         estimate D2E/DX2                !
 ! A7    A(2,3,4)              118.7947         estimate D2E/DX2                !
 ! A8    A(2,3,12)             122.2138         estimate D2E/DX2                !
 ! A9    A(4,3,12)             118.9914         estimate D2E/DX2                !
 ! A10   A(3,4,5)              120.5591         estimate D2E/DX2                !
 ! A11   A(3,4,9)              120.4823         estimate D2E/DX2                !
 ! A12   A(5,4,9)              118.9584         estimate D2E/DX2                !
 ! A13   A(4,5,6)              120.1175         estimate D2E/DX2                !
 ! A14   A(4,5,10)             119.9573         estimate D2E/DX2                !
 ! A15   A(6,5,10)             119.9253         estimate D2E/DX2                !
 ! A16   A(1,6,5)              119.9748         estimate D2E/DX2                !
 ! A17   A(1,6,11)             120.0084         estimate D2E/DX2                !
 ! A18   A(5,6,11)             120.0167         estimate D2E/DX2                !
 ! A19   A(3,12,13)            117.2685         estimate D2E/DX2                !
 ! A20   A(3,12,18)            113.487          estimate D2E/DX2                !
 ! A21   A(3,12,35)            115.0525         estimate D2E/DX2                !
 ! A22   A(13,12,18)           112.3466         estimate D2E/DX2                !
 ! A23   A(13,12,35)           123.9266         estimate D2E/DX2                !
 ! A24   A(12,13,14)           111.2753         estimate D2E/DX2                !
 ! A25   A(12,13,15)           106.2466         estimate D2E/DX2                !
 ! A26   A(12,13,16)           113.2637         estimate D2E/DX2                !
 ! A27   A(14,13,15)           106.3156         estimate D2E/DX2                !
 ! A28   A(14,13,16)           112.8526         estimate D2E/DX2                !
 ! A29   A(15,13,16)           106.2767         estimate D2E/DX2                !
 ! A30   A(13,16,17)           101.969          estimate D2E/DX2                !
 ! A31   A(13,16,21)           113.6796         estimate D2E/DX2                !
 ! A32   A(17,16,21)           111.878          estimate D2E/DX2                !
 ! A33   A(16,17,18)           104.2258         estimate D2E/DX2                !
 ! A34   A(16,17,19)           112.761          estimate D2E/DX2                !
 ! A35   A(16,17,20)           109.9654         estimate D2E/DX2                !
 ! A36   A(18,17,19)           111.0703         estimate D2E/DX2                !
 ! A37   A(18,17,20)           109.7225         estimate D2E/DX2                !
 ! A38   A(19,17,20)           109.0061         estimate D2E/DX2                !
 ! A39   A(12,18,17)           103.1146         estimate D2E/DX2                !
 ! A40   A(17,18,35)           109.4908         estimate D2E/DX2                !
 ! A41   A(16,21,22)           110.5185         estimate D2E/DX2                !
 ! A42   A(16,21,23)           109.3453         estimate D2E/DX2                !
 ! A43   A(16,21,24)           111.2825         estimate D2E/DX2                !
 ! A44   A(22,21,23)           107.1132         estimate D2E/DX2                !
 ! A45   A(22,21,24)           110.5893         estimate D2E/DX2                !
 ! A46   A(23,21,24)           107.8571         estimate D2E/DX2                !
 ! A47   A(21,22,25)           120.6349         estimate D2E/DX2                !
 ! A48   A(21,22,27)           120.0722         estimate D2E/DX2                !
 ! A49   A(25,22,27)           119.2929         estimate D2E/DX2                !
 ! A50   A(22,25,26)           120.2356         estimate D2E/DX2                !
 ! A51   A(22,25,32)           120.587          estimate D2E/DX2                !
 ! A52   A(26,25,32)           119.1774         estimate D2E/DX2                !
 ! A53   A(25,26,29)           120.1042         estimate D2E/DX2                !
 ! A54   A(25,26,33)           119.9459         estimate D2E/DX2                !
 ! A55   A(29,26,33)           119.9498         estimate D2E/DX2                !
 ! A56   A(22,27,28)           120.2778         estimate D2E/DX2                !
 ! A57   A(22,27,34)           120.3555         estimate D2E/DX2                !
 ! A58   A(28,27,34)           119.3667         estimate D2E/DX2                !
 ! A59   A(27,28,29)           120.0777         estimate D2E/DX2                !
 ! A60   A(27,28,31)           119.9609         estimate D2E/DX2                !
 ! A61   A(29,28,31)           119.9614         estimate D2E/DX2                !
 ! A62   A(26,29,28)           120.0117         estimate D2E/DX2                !
 ! A63   A(26,29,30)           119.9963         estimate D2E/DX2                !
 ! A64   A(28,29,30)           119.992          estimate D2E/DX2                !
 ! A65   A(12,35,36)           117.2465         estimate D2E/DX2                !
 ! A66   A(12,35,37)           122.9643         estimate D2E/DX2                !
 ! A67   A(18,35,36)           107.8229         estimate D2E/DX2                !
 ! A68   A(18,35,37)           111.2889         estimate D2E/DX2                !
 ! A69   A(36,35,37)           118.5088         estimate D2E/DX2                !
 ! D1    D(6,1,2,3)             -0.0291         estimate D2E/DX2                !
 ! D2    D(6,1,2,8)           -179.877          estimate D2E/DX2                !
 ! D3    D(7,1,2,3)            179.9288         estimate D2E/DX2                !
 ! D4    D(7,1,2,8)              0.0809         estimate D2E/DX2                !
 ! D5    D(2,1,6,5)             -0.0143         estimate D2E/DX2                !
 ! D6    D(2,1,6,11)           179.9855         estimate D2E/DX2                !
 ! D7    D(7,1,6,5)           -179.9721         estimate D2E/DX2                !
 ! D8    D(7,1,6,11)             0.0276         estimate D2E/DX2                !
 ! D9    D(1,2,3,4)              0.0522         estimate D2E/DX2                !
 ! D10   D(1,2,3,12)          -179.8295         estimate D2E/DX2                !
 ! D11   D(8,2,3,4)            179.8959         estimate D2E/DX2                !
 ! D12   D(8,2,3,12)             0.0142         estimate D2E/DX2                !
 ! D13   D(2,3,4,5)             -0.0328         estimate D2E/DX2                !
 ! D14   D(2,3,4,9)            179.8551         estimate D2E/DX2                !
 ! D15   D(12,3,4,5)           179.8528         estimate D2E/DX2                !
 ! D16   D(12,3,4,9)            -0.2594         estimate D2E/DX2                !
 ! D17   D(2,3,12,13)          127.6984         estimate D2E/DX2                !
 ! D18   D(2,3,12,18)           -5.9607         estimate D2E/DX2                !
 ! D19   D(2,3,12,35)          -73.2268         estimate D2E/DX2                !
 ! D20   D(4,3,12,13)          -52.1831         estimate D2E/DX2                !
 ! D21   D(4,3,12,18)          174.1578         estimate D2E/DX2                !
 ! D22   D(4,3,12,35)          106.8918         estimate D2E/DX2                !
 ! D23   D(3,4,5,6)             -0.0098         estimate D2E/DX2                !
 ! D24   D(3,4,5,10)           179.9898         estimate D2E/DX2                !
 ! D25   D(9,4,5,6)           -179.8994         estimate D2E/DX2                !
 ! D26   D(9,4,5,10)             0.1002         estimate D2E/DX2                !
 ! D27   D(4,5,6,1)              0.0337         estimate D2E/DX2                !
 ! D28   D(4,5,6,11)          -179.966          estimate D2E/DX2                !
 ! D29   D(10,5,6,1)          -179.9659         estimate D2E/DX2                !
 ! D30   D(10,5,6,11)            0.0343         estimate D2E/DX2                !
 ! D31   D(3,12,13,14)          73.0251         estimate D2E/DX2                !
 ! D32   D(3,12,13,15)         -42.283          estimate D2E/DX2                !
 ! D33   D(3,12,13,16)        -158.5819         estimate D2E/DX2                !
 ! D34   D(18,12,13,14)       -152.815          estimate D2E/DX2                !
 ! D35   D(18,12,13,15)         91.8769         estimate D2E/DX2                !
 ! D36   D(18,12,13,16)        -24.4219         estimate D2E/DX2                !
 ! D37   D(35,12,13,14)        -84.0246         estimate D2E/DX2                !
 ! D38   D(35,12,13,15)        160.6673         estimate D2E/DX2                !
 ! D39   D(35,12,13,16)         44.3684         estimate D2E/DX2                !
 ! D40   D(3,12,18,17)         148.3518         estimate D2E/DX2                !
 ! D41   D(13,12,18,17)         12.401          estimate D2E/DX2                !
 ! D42   D(3,12,35,36)           8.1685         estimate D2E/DX2                !
 ! D43   D(3,12,35,37)        -158.6959         estimate D2E/DX2                !
 ! D44   D(13,12,35,36)        165.6741         estimate D2E/DX2                !
 ! D45   D(13,12,35,37)         -1.1903         estimate D2E/DX2                !
 ! D46   D(12,13,16,17)         22.1657         estimate D2E/DX2                !
 ! D47   D(12,13,16,21)        -98.4248         estimate D2E/DX2                !
 ! D48   D(14,13,16,17)        149.74           estimate D2E/DX2                !
 ! D49   D(14,13,16,21)         29.1495         estimate D2E/DX2                !
 ! D50   D(15,13,16,17)        -94.1153         estimate D2E/DX2                !
 ! D51   D(15,13,16,21)        145.2942         estimate D2E/DX2                !
 ! D52   D(13,16,17,18)        -13.5477         estimate D2E/DX2                !
 ! D53   D(13,16,17,19)       -134.1166         estimate D2E/DX2                !
 ! D54   D(13,16,17,20)        104.001          estimate D2E/DX2                !
 ! D55   D(21,16,17,18)        108.2914         estimate D2E/DX2                !
 ! D56   D(21,16,17,19)        -12.2776         estimate D2E/DX2                !
 ! D57   D(21,16,17,20)       -134.1599         estimate D2E/DX2                !
 ! D58   D(13,16,21,22)        -71.5251         estimate D2E/DX2                !
 ! D59   D(13,16,21,23)        170.8042         estimate D2E/DX2                !
 ! D60   D(13,16,21,24)         51.7565         estimate D2E/DX2                !
 ! D61   D(17,16,21,22)        173.6327         estimate D2E/DX2                !
 ! D62   D(17,16,21,23)         55.962          estimate D2E/DX2                !
 ! D63   D(17,16,21,24)        -63.0858         estimate D2E/DX2                !
 ! D64   D(16,17,18,12)          0.6487         estimate D2E/DX2                !
 ! D65   D(16,17,18,35)        -60.9222         estimate D2E/DX2                !
 ! D66   D(19,17,18,12)        122.3438         estimate D2E/DX2                !
 ! D67   D(19,17,18,35)         60.773          estimate D2E/DX2                !
 ! D68   D(20,17,18,12)       -117.0675         estimate D2E/DX2                !
 ! D69   D(20,17,18,35)       -178.6384         estimate D2E/DX2                !
 ! D70   D(17,18,35,36)       -154.3296         estimate D2E/DX2                !
 ! D71   D(17,18,35,37)        -22.7736         estimate D2E/DX2                !
 ! D72   D(16,21,22,25)        121.5354         estimate D2E/DX2                !
 ! D73   D(16,21,22,27)        -58.4949         estimate D2E/DX2                !
 ! D74   D(23,21,22,25)       -119.4314         estimate D2E/DX2                !
 ! D75   D(23,21,22,27)         60.5382         estimate D2E/DX2                !
 ! D76   D(24,21,22,25)         -2.1471         estimate D2E/DX2                !
 ! D77   D(24,21,22,27)        177.8226         estimate D2E/DX2                !
 ! D78   D(21,22,25,26)       -179.9419         estimate D2E/DX2                !
 ! D79   D(21,22,25,32)          0.007          estimate D2E/DX2                !
 ! D80   D(27,22,25,26)          0.0882         estimate D2E/DX2                !
 ! D81   D(27,22,25,32)       -179.9629         estimate D2E/DX2                !
 ! D82   D(21,22,27,28)        179.8937         estimate D2E/DX2                !
 ! D83   D(21,22,27,34)         -0.0011         estimate D2E/DX2                !
 ! D84   D(25,22,27,28)         -0.1362         estimate D2E/DX2                !
 ! D85   D(25,22,27,34)        179.969          estimate D2E/DX2                !
 ! D86   D(22,25,26,29)          0.0037         estimate D2E/DX2                !
 ! D87   D(22,25,26,33)        179.9837         estimate D2E/DX2                !
 ! D88   D(32,25,26,29)       -179.9459         estimate D2E/DX2                !
 ! D89   D(32,25,26,33)          0.0341         estimate D2E/DX2                !
 ! D90   D(25,26,29,28)         -0.0487         estimate D2E/DX2                !
 ! D91   D(25,26,29,30)        179.9601         estimate D2E/DX2                !
 ! D92   D(33,26,29,28)        179.9713         estimate D2E/DX2                !
 ! D93   D(33,26,29,30)         -0.02           estimate D2E/DX2                !
 ! D94   D(22,27,28,29)          0.0924         estimate D2E/DX2                !
 ! D95   D(22,27,28,31)       -179.8986         estimate D2E/DX2                !
 ! D96   D(34,27,28,29)        179.9882         estimate D2E/DX2                !
 ! D97   D(34,27,28,31)         -0.0028         estimate D2E/DX2                !
 ! D98   D(27,28,29,26)          0.0007         estimate D2E/DX2                !
 ! D99   D(27,28,29,30)        179.992          estimate D2E/DX2                !
 ! D100  D(31,28,29,26)        179.9917         estimate D2E/DX2                !
 ! D101  D(31,28,29,30)         -0.017          estimate D2E/DX2                !
 --------------------------------------------------------------------------------
 Trust Radius=3.00D-01 FncErr=1.00D-07 GrdErr=1.00D-06 EigMax=2.50D+02 EigMin=1.00D-04
 Number of steps in this run=    220 maximum allowed number of steps=    222.
 GradGradGradGradGradGradGradGradGradGradGradGradGradGradGradGradGradGrad

 Leave Link  103 at Sun Jun 13 18:02:47 2021, MaxMem= 16106127360 cpu:               0.6 elap:               0.2
 (Enter /usr/public/gaussian//g16/l202.exe)
                          Input orientation:                          
 ---------------------------------------------------------------------
 Center     Atomic      Atomic             Coordinates (Angstroms)
 Number     Number       Type             X           Y           Z
 ---------------------------------------------------------------------
      1          6           0       -5.180640   -1.740490    0.509980
      2          6           0       -4.183070   -0.822600    0.167190
      3          6           0       -2.899120   -1.270860   -0.207830
      4          6           0       -2.644440   -2.653400   -0.230860
      5          6           0       -3.645930   -3.566480    0.112510
      6          6           0       -4.912680   -3.110570    0.482910
      7          1           0       -6.162930   -1.388420    0.797740
      8          1           0       -4.420350    0.232420    0.199660
      9          1           0       -1.669570   -3.027560   -0.516730
     10          1           0       -3.439260   -4.628700    0.091270
     11          1           0       -5.686650   -3.818880    0.748960
     12          6           0       -1.785590   -0.311760   -0.583810
     13          6           0       -0.416960   -0.477110    0.155840
     14          1           0        0.126200   -1.379330   -0.198210
     15          1           0       -0.661140   -0.659070    1.224620
     16          7           0        0.411900    0.738450    0.123280
     17         16           0       -0.783980    1.986080   -0.166220
     18          7           0       -2.221820    1.101540   -0.651400
     19          8           0       -0.353110    2.981940   -1.256580
     20          8           0       -1.063060    2.756370    1.132560
     21          6           0        1.449490    0.719280   -0.922490
     22          6           0        2.542480   -0.255570   -0.564660
     23          1           0        1.918400    1.724450   -0.994390
     24          1           0        1.017370    0.473990   -1.913720
     25          6           0        2.857200   -1.324720   -1.421060
     26          6           0        3.871760   -2.224700   -1.080330
     27          6           0        3.259000   -0.101110    0.634180
     28          6           0        4.272030   -1.003990    0.971360
     29          6           0        4.578220   -2.064940    0.114880
     30          1           0        5.362730   -2.762940    0.377190
     31          1           0        4.819580   -0.881110    1.896860
     32          1           0        2.318830   -1.463200   -2.350380
     33          1           0        4.110050   -3.046500   -1.743160
     34          1           0        3.031130    0.716860    1.306530
     35          6           0       -1.935820    0.331210   -1.891720
     36          1           0       -2.897510    0.178100   -2.426230
     37          1           0       -1.085540    0.768250   -2.449040
 ---------------------------------------------------------------------
                    Distance matrix (angstroms):
                    1          2          3          4          5
     1  C    0.000000
     2  C    1.398275   0.000000
     3  C    2.437445   1.410711   0.000000
     4  C    2.795453   2.424387   1.405990   0.000000
     5  C    2.418172   2.796495   2.435203   1.398070   0.000000
     6  C    1.396300   2.422151   2.813553   2.421443   1.396319
     7  H    1.082429   2.153507   3.417228   3.877881   3.398349
     8  H    2.136987   1.081861   2.177163   3.415723   3.878010
     9  H    3.877924   3.412811   2.166381   1.082631   2.142983
    10  H    3.398452   3.878842   3.414133   2.153443   1.082347
    11  H    2.152409   3.402485   3.895918   3.401975   2.152513
    12  C    3.842396   2.563761   1.516965   2.519023   3.812995
    13  C    4.941072   3.781941   2.631238   3.138063   4.469041
    14  H    5.366053   4.360421   3.027279   3.049716   4.371400
    15  H    4.701708   3.680882   2.726675   3.166900   4.312632
    16  N    6.129534   4.853097   3.887134   4.579441   5.915955
    17  S    5.803033   4.421952   3.883710   4.999026   6.252949
    18  N    4.263866   2.866863   2.506745   3.801978   4.939844
    19  O    6.980482   5.583031   5.066394   6.169226   7.456465
    20  O    6.128933   4.845145   4.624537   5.798732   6.905806
    21  C    7.215335   5.940583   4.835474   5.349167   6.738121
    22  C    7.937658   6.788973   5.546995   5.724085   7.051036
    23  H    8.041474   6.713022   5.727046   6.369306   7.757637
    24  H    7.013813   5.749427   4.614483   5.101121   6.494411
    25  C    8.276995   7.234643   5.883031   5.783598   7.047555
    26  C    9.203776   8.270579   6.893177   6.585305   7.729095
    27  C    8.598286   7.491531   6.324535   6.489459   7.743319
    28  C    9.492538   8.495193   7.272352   7.211341   8.366485
    29  C    9.772242   8.849087   7.526308   7.254836   8.360100
    30  H   10.593663   9.743270   8.415861   8.030971   9.048297
    31  H   10.132441   9.167491   8.009991   7.961143   9.058696
    32  H    8.031227   7.001659   5.643981   5.526571   6.787339
    33  H    9.648794   8.796079   7.391793   6.932872   7.991816
    34  H    8.608497   7.464095   6.435230   6.777486   8.022208
    35  C    4.537506   3.258914   2.515961   3.488337   4.704615
    36  H    4.185093   3.062661   2.649677   3.591808   4.585544
    37  H    5.640870   4.355474   3.531298   4.365568   5.648630
                    6          7          8          9         10
     6  C    0.000000
     7  H    2.151289   0.000000
     8  H    3.390900   2.453856   0.000000
     9  H    3.394692   4.960332   4.325214   0.000000
    10  H    2.151527   4.291491   4.960320   2.462746   0.000000
    11  H    1.082366   2.477167   4.279986   4.285451   2.477726
    12  C    4.330118   4.714762   2.802127   2.719105   4.671866
    13  C    5.220497   5.853093   4.066016   2.919962   5.135578
    14  H    5.371353   6.367508   4.840161   2.458232   4.832671
    15  H    4.963424   5.566316   3.997119   3.107889   4.975982
    16  N    6.579927   6.943116   4.859274   4.350283   6.605964
    17  S    6.591159   6.422583   4.053687   5.103304   7.132470
    18  N    5.125354   4.881829   2.512610   4.168043   5.905029
    19  O    7.806035   7.554753   5.120834   6.196332   8.322431
    20  O    7.047170   6.580278   4.302560   6.044986   7.827507
    21  C    7.557785   8.083967   5.995938   4.892033   7.316316
    22  C    8.051574   8.883898   7.021632   5.042578   7.438799
    23  H    8.498440   8.843618   6.620548   5.973549   8.381270
    24  H    7.332012   7.897930   5.838967   4.629479   7.065337
    25  C    8.196670   9.289234   7.616702   4.920277   7.269720
    26  C    8.966319  10.243120   8.742706   5.627483   7.784785
    27  C    8.709540   9.510872   7.698861   5.846324   8.103117
    28  C    9.435844  10.443482   8.813722   6.450725   8.566042
    29  C    9.555416  10.784075   9.287589   6.352987   8.417447
    30  H   10.281832  11.614948  10.232905   7.093825   9.002102
    31  H   10.083979  11.049025   9.460272   7.248568   9.247325
    32  H    7.939528   9.047458   7.402322   4.660132   7.009825
    33  H    9.293500  10.711653   9.343104   5.908341   7.928466
    34  H    8.856167   9.445730   7.548801   6.280250   8.480437
    35  C    5.132876   5.297054   3.249080   3.639069   5.549170
    36  H    4.831082   4.848808   3.035999   3.928140   5.453130
    37  H    6.187776   6.400992   4.292282   4.299196   6.412507
                   11         12         13         14         15
    11  H    0.000000
    12  C    5.412433   0.000000
    13  C    6.268082   1.564471   0.000000
    14  H    6.374775   2.223361   1.111024   0.000000
    15  H    5.955368   2.157645   1.111316   1.778517   0.000000
    16  N    7.638916   2.536115   1.471617   2.161012   2.077842
    17  S    7.653188   2.541195   2.511122   3.486465   2.991044
    18  N    6.178721   1.480636   2.530077   3.445765   3.009140
    19  O    8.872429   3.654186   3.736848   4.513376   4.416808
    20  O    8.047276   3.589066   3.439014   4.504365   3.440239
    21  C    8.620507   3.412256   2.465315   2.584539   3.311297
    22  C    9.063187   4.328477   3.053929   2.689894   3.691547
    23  H    9.571027   4.246677   3.409370   3.671421   4.154419
    24  H    8.394193   3.200414   2.691649   2.678050   3.735023
    25  C    9.161179   4.825202   3.731646   2.992776   4.452126
    26  C    9.861588   5.992619   4.793256   3.939798   5.320825
    27  C    9.688119   5.193820   3.725972   3.484416   4.003428
    28  C   10.351250   6.292257   4.788455   4.323966   4.951694
    29  C   10.432925   6.637762   5.241632   4.515370   5.537047
    30  H   11.105945   7.617761   6.219231   5.446715   6.436724
    31  H   10.969459   7.078570   5.533147   5.163851   5.526256
    32  H    8.901845   4.614417   3.839018   3.073515   4.723079
    33  H   10.138174   6.601626   5.540919   4.586653   6.105063
    34  H    9.842942   5.275627   3.826092   3.885470   3.941161
    35  C    6.185884   1.465131   2.674475   3.169519   3.509564
    36  H    5.816956   2.206998   3.639988   4.066016   4.362443
    37  H    7.241490   2.266181   2.963667   3.338660   3.963980
                   16         17         18         19         20
    16  N    0.000000
    17  S    1.752290   0.000000
    18  N    2.769196   1.756472   0.000000
    19  O    2.742718   1.538269   2.719232   0.000000
    20  O    2.695581   1.535598   2.695125   2.502579   0.000000
    21  C    1.473294   2.676773   3.701098   2.912149   3.832215
    22  C    2.449634   4.031015   4.954576   4.398257   4.995223
    23  H    2.119180   2.838516   4.200843   2.609556   3.804981
    24  H    2.141472   2.930023   3.532651   2.932552   4.337888
    25  C    3.552626   5.078800   5.681158   5.374055   6.208439
    26  C    4.711642   6.343672   6.955542   6.707435   7.352577
    27  C    3.011953   4.619815   5.756602   5.111508   5.205168
    28  C    4.319252   5.983130   7.016886   6.499483   6.529125
    29  C    5.021682   6.726289   7.540181   7.188179   7.490310
    30  H    6.069178   7.786561   8.574241   8.267023   8.504360
    31  H    5.019582   6.623969   7.746344   7.184989   6.958511
    32  H    3.821340   5.127915   5.484699   5.300465   6.432171
    33  H    5.611217   7.194799   7.647925   7.516558   8.288796
    34  H    2.874180   4.281936   5.619159   4.811777   4.577364
    35  C    3.120554   2.653805   1.487817   3.151943   3.973585
    36  H    4.214996   3.583775   2.111710   3.962773   4.762108
    37  H    2.976583   2.604864   2.152609   2.618938   4.096460
                   21         22         23         24         25
    21  C    0.000000
    22  C    1.507648   0.000000
    23  H    1.111491   2.120053   0.000000
    24  H    1.108797   2.162910   1.794623   0.000000
    25  C    2.531433   1.405543   3.218824   2.619742   0.000000
    26  C    3.815668   2.431126   4.406675   4.015596   1.398354
    27  C    2.524002   1.405161   2.789645   3.442011   2.425423
    28  C    3.810913   2.431221   4.104648   4.593574   2.797907
    29  C    4.314739   2.807104   4.760735   4.820896   2.422591
    30  H    5.397080   3.889447   5.820765   5.882868   3.402919
    31  H    4.676269   3.411094   4.854391   5.551001   3.880247
    32  H    2.749153   2.167299   3.487143   2.374274   1.082892
    33  H    4.683287   3.411074   5.303390   4.689095   2.153580
    34  H    2.733152   2.164660   2.747297   3.805815   3.411458
    35  C    3.542644   4.707501   4.195394   2.956721   5.092805
    36  H    4.631470   5.766021   5.256839   3.959356   6.032041
    37  H    2.959583   4.214454   3.471884   2.189837   4.580662
                   26         27         28         29         30
    26  C    0.000000
    27  C    2.797258   0.000000
    28  C    2.420698   1.398253   0.000000
    29  C    1.397546   2.422115   1.397471   0.000000
    30  H    2.153383   3.402508   2.153270   1.082343   0.000000
    31  H    3.401067   2.153641   1.082340   2.152942   2.479051
    32  H    2.145810   3.412742   3.880698   3.397711   4.288856
    33  H    1.082350   3.879607   3.400986   2.152895   2.479011
    34  H    3.880275   1.083076   2.147905   3.398813   4.290576
    35  C    6.396797   5.792515   6.965442   7.225005   8.245638
    36  H    7.308072   6.880893   8.021425   8.208228   9.205457
    37  H    5.950289   5.397876   6.598752   6.832191   7.876361
                   31         32         33         34         35
    31  H    0.000000
    32  H    4.963026   0.000000
    33  H    4.294426   2.466581   0.000000
    34  H    2.469929   4.316599   4.962616   0.000000
    35  C    7.839546   4.640293   6.927015   5.920145   0.000000
    36  H    8.908676   5.468987   7.744064   7.026559   1.110852
    37  H    7.515163   4.071712   6.484192   5.572604   1.106610
                   36         37
    36  H    0.000000
    37  H    1.905789   0.000000
 Stoichiometry    C16H16N2O2S
 Framework group  C1[X(C16H16N2O2S)]
 Deg. of freedom   105
 Full point group                 C1      NOp   1
 Largest Abelian subgroup         C1      NOp   1
 Largest concise Abelian subgroup C1      NOp   1
                         Standard orientation:                         
 ---------------------------------------------------------------------
 Center     Atomic      Atomic             Coordinates (Angstroms)
 Number     Number       Type             X           Y           Z
 ---------------------------------------------------------------------
      1          6           0        4.890045   -0.979870   -0.524213
      2          6           0        3.793903   -0.152537   -0.261222
      3          6           0        2.550284   -0.709893    0.103293
      4          6           0        2.436290   -2.108089    0.197429
      5          6           0        3.535863   -2.930272   -0.066306
      6          6           0        4.761452   -2.366842   -0.427113
      7          1           0        5.840584   -0.544444   -0.804451
      8          1           0        3.924071    0.918053   -0.346750
      9          1           0        1.495429   -2.564794    0.477231
     10          1           0        3.437229   -4.005463    0.009258
     11          1           0        5.611515   -3.004924   -0.631467
     12          6           0        1.333574    0.148210    0.393911
     13          6           0        0.013849   -0.196393   -0.372344
     14          1           0       -0.446533   -1.129521    0.017138
     15          1           0        0.310294   -0.409077   -1.422063
     16          7           0       -0.934460    0.927397   -0.431178
     17         16           0        0.118742    2.305157   -0.180054
     18          7           0        1.621983    1.600485    0.393441
     19          8           0       -0.446459    3.308188    0.840116
     20          8           0        0.361044    3.029607   -1.512166
     21          6           0       -1.998678    0.857418    0.585256
     22          6           0       -2.974945   -0.242462    0.253337
     23          1           0       -2.569076    1.811386    0.587408
     24          1           0       -1.576849    0.711199    1.600200
     25          6           0       -3.207840   -1.291052    1.159852
     26          6           0       -4.114267   -2.307582    0.842913
     27          6           0       -3.663516   -0.226820   -0.971449
     28          6           0       -4.568245   -1.245883   -1.284640
     29          6           0       -4.793492   -2.285446   -0.378275
     30          1           0       -5.494215   -3.073492   -0.622073
     31          1           0       -5.094619   -1.229618   -2.230222
     32          1           0       -2.689140   -1.323552    2.109878
     33          1           0       -4.289833   -3.112962    1.544354
     34          1           0       -3.497609    0.573175   -1.682460
     35          6           0        1.374731    0.872160    1.667022
     36          1           0        2.328839    0.847611    2.235412
     37          1           0        0.466661    1.248504    2.175313
 ---------------------------------------------------------------------
 Rotational constants (GHZ):           0.4141255           0.1875497           0.1430590
 Leave Link  202 at Sun Jun 13 18:02:47 2021, MaxMem= 16106127360 cpu:               5.6 elap:               0.3
 (Enter /usr/public/gaussian//g16/l301.exe)
 Standard basis: 6-311G(d) (5D, 7F)
 Ernie: Thresh=  0.10000D-02 Tol=  0.10000D-05 Strict=F.
 There are   455 symmetry adapted cartesian basis functions of A   symmetry.
 There are   434 symmetry adapted basis functions of A   symmetry.
   434 basis functions,   766 primitive gaussians,   455 cartesian basis functions
    79 alpha electrons       79 beta electrons
       nuclear repulsion energy      1789.4464209571 Hartrees.
 IExCor=  404 DFT=T Ex=B Corr=P86 ExCW=0 ScaHFX=  0.000000
 ScaDFX=  1.000000  1.000000  1.000000  1.000000 ScalE2=  1.000000  1.000000
 IRadAn=      5 IRanWt=     -1 IRanGd=            0 ICorTp=0 IEmpDi=  4
 NAtoms=   37 NActive=   37 NUniq=   37 SFac= 1.00D+00 NAtFMM=   60 NAOKFM=F Big=F
 Integral buffers will be    131072 words long.
 Raffenetti 2 integral format.
 Two-electron integral symmetry is turned on.
 Leave Link  301 at Sun Jun 13 18:02:48 2021, MaxMem= 16106127360 cpu:               6.8 elap:               0.4
 (Enter /usr/public/gaussian//g16/l302.exe)
 NPDir=0 NMtPBC=     1 NCelOv=     1 NCel=       1 NClECP=     1 NCelD=      1
         NCelK=      1 NCelE2=     1 NClLst=     1 CellRange=     0.0.
 One-electron integrals computed using PRISM.
 One-electron integral symmetry used in STVInt
 NBasis=   434 RedAO= T EigKep=  1.89D-04  NBF=   434
 NBsUse=   434 1.00D-06 EigRej= -1.00D+00 NBFU=   434
 Precomputing XC quadrature grid using
 IXCGrd= 4 IRadAn=           5 IRanWt=          -1 IRanGd=           0 AccXCQ= 0.00D+00.
 Generated NRdTot=       0 NPtTot=           0 NUsed=           0 NTot=          32
 NSgBfM=   454   454   454   454   454 MxSgAt=    37 MxSgA2=    37.
 Leave Link  302 at Sun Jun 13 18:02:50 2021, MaxMem= 16106127360 cpu:              28.6 elap:               1.3
 (Enter /usr/public/gaussian//g16/l303.exe)
 DipDrv:  MaxL=1.
 Leave Link  303 at Sun Jun 13 18:02:51 2021, MaxMem= 16106127360 cpu:               7.6 elap:               0.7
 (Enter /usr/public/gaussian//g16/l401.exe)
 ExpMin= 7.71D-02 ExpMax= 9.34D+04 ExpMxC= 3.17D+03 IAcc=3 IRadAn=         5 AccDes= 0.00D+00
 Harris functional with IExCor=  404 and IRadAn=       5 diagonalized for initial guess.
 HarFok:  IExCor=  404 AccDes= 0.00D+00 IRadAn=         5 IDoV= 1 UseB2=F ITyADJ=14
 ICtDFT=  3500011 ScaDFX=  1.000000  1.000000  1.000000  1.000000
 FoFCou: FMM=F IPFlag=           0 FMFlag=      100000 FMFlg1=           0
         NFxFlg=           0 DoJE=T BraDBF=F KetDBF=T FulRan=T
         wScrn=  0.000000 ICntrl=       500 IOpCl=  0 I1Cent=   200000004 NGrid=           0
         NMat0=    1 NMatS0=      1 NMatT0=    0 NMatD0=    1 NMtDS0=    0 NMtDT0=    0
 Petite list used in FoFCou.
 Harris En= -1277.92129370402    
 JPrj=0 DoOrth=F DoCkMO=F.
 Leave Link  401 at Sun Jun 13 18:02:53 2021, MaxMem= 16106127360 cpu:              60.2 elap:               2.7
 (Enter /usr/public/gaussian//g16/l502.exe)
 Integral symmetry usage will be decided dynamically.
 Closed shell SCF:
 Using DIIS extrapolation, IDIIS=  1040.
 NGot= 16106127360 LenX= 16105695927 LenY= 16105488447
 Requested convergence on RMS density matrix=1.00D-08 within 128 cycles.
 Requested convergence on MAX density matrix=1.00D-06.
 Requested convergence on             energy=1.00D-06.
 No special actions if energy rises.
 Fock matrices will be formed incrementally for  20 cycles.
 Integral accuracy reduced to 1.0D-05 until final iterations.

 Cycle   1  Pass 0  IDiag  1:
 FoFJK:  IHMeth= 1 ICntrl=     500 DoSepK=F KAlg= 0 I1Cent=           0 FoldK=F
 IRaf= 770000000 NMat=       1 IRICut=       1 DoRegI=T DoRafI=F ISym2E= 0 IDoP0=0 IntGTp=1.
 FoFCou: FMM=F IPFlag=           0 FMFlag=      100000 FMFlg1=           0
         NFxFlg=           0 DoJE=T BraDBF=F KetDBF=F FulRan=T
         wScrn=  0.000000 ICntrl=       500 IOpCl=  0 I1Cent=           0 NGrid=           0
         NMat0=    1 NMatS0=      1 NMatT0=    0 NMatD0=    1 NMtDS0=    0 NMtDT0=    0
 Symmetry not used in FoFCou.
 E= -1276.92153886538    
 DIIS: error= 4.68D-02 at cycle   1 NSaved=   1.
 NSaved= 1 IEnMin= 1 EnMin= -1276.92153886538     IErMin= 1 ErrMin= 4.68D-02
 ErrMax= 4.68D-02  0.00D+00 EMaxC= 1.00D-01 BMatC= 7.81D-01 BMatP= 7.81D-01
 IDIUse=3 WtCom= 5.32D-01 WtEn= 4.68D-01
 Coeff-Com:  0.100D+01
 Coeff-En:   0.100D+01
 Coeff:      0.100D+01
 Gap=     0.308 Goal=   None    Shift=    0.000
 GapD=    0.308 DampG=1.000 DampE=0.500 DampFc=0.5000 IDamp=-1.
 Damping current iteration by 5.00D-01
 RMSDP=7.44D-03 MaxDP=5.98D-01              OVMax= 4.51D-01

 Cycle   2  Pass 0  IDiag  1:
 RMSU=  3.72D-03    CP:  1.02D+00
 E= -1276.45327175755     Delta-E=        0.468267107832 Rises=F Damp=T
 DIIS: error= 4.38D-02 at cycle   2 NSaved=   2.
 NSaved= 2 IEnMin= 1 EnMin= -1276.92153886538     IErMin= 2 ErrMin= 4.38D-02
 ErrMax= 4.38D-02  0.00D+00 EMaxC= 1.00D-01 BMatC= 6.00D-01 BMatP= 7.81D-01
 IDIUse=3 WtCom= 5.62D-01 WtEn= 4.38D-01
 Coeff-Com:  0.460D+00 0.540D+00
 Coeff-En:   0.654D+00 0.346D+00
 Coeff:      0.545D+00 0.455D+00
 Gap=     0.150 Goal=   None    Shift=    0.000
 RMSDP=2.90D-03 MaxDP=1.38D-01 DE= 4.68D-01 OVMax= 3.33D-01

 Cycle   3  Pass 0  IDiag  1:
 RMSU=  1.85D-03    CP:  9.99D-01  4.00D-01
 E= -1277.35209146601     Delta-E=       -0.898819708459 Rises=F Damp=F
 DIIS: error= 1.59D-02 at cycle   3 NSaved=   3.
 NSaved= 3 IEnMin= 3 EnMin= -1277.35209146601     IErMin= 3 ErrMin= 1.59D-02
 ErrMax= 1.59D-02  0.00D+00 EMaxC= 1.00D-01 BMatC= 2.26D-01 BMatP= 6.00D-01
 IDIUse=3 WtCom= 8.41D-01 WtEn= 1.59D-01
 Coeff-Com:  0.279D+00 0.316D+00 0.405D+00
 Coeff-En:   0.189D+00 0.000D+00 0.811D+00
 Coeff:      0.265D+00 0.266D+00 0.469D+00
 Gap=     0.188 Goal=   None    Shift=    0.000
 RMSDP=1.65D-03 MaxDP=5.58D-02 DE=-8.99D-01 OVMax= 1.36D-01

 Cycle   4  Pass 0  IDiag  1:
 RMSU=  8.77D-04    CP:  1.01D+00  4.37D-01  2.52D-01
 E= -1277.53724123486     Delta-E=       -0.185149768854 Rises=F Damp=F
 DIIS: error= 6.72D-03 at cycle   4 NSaved=   4.
 NSaved= 4 IEnMin= 4 EnMin= -1277.53724123486     IErMin= 4 ErrMin= 6.72D-03
 ErrMax= 6.72D-03  0.00D+00 EMaxC= 1.00D-01 BMatC= 5.28D-02 BMatP= 2.26D-01
 IDIUse=3 WtCom= 9.33D-01 WtEn= 6.72D-02
 Coeff-Com:  0.985D-01 0.662D-01 0.313D+00 0.522D+00
 Coeff-En:   0.000D+00 0.000D+00 0.199D+00 0.801D+00
 Coeff:      0.919D-01 0.618D-01 0.306D+00 0.541D+00
 Gap=     0.173 Goal=   None    Shift=    0.000
 RMSDP=6.49D-04 MaxDP=3.36D-02 DE=-1.85D-01 OVMax= 5.79D-02

 Cycle   5  Pass 0  IDiag  1:
 RMSU=  3.14D-04    CP:  1.01D+00  4.09D-01  4.69D-01  5.60D-01
 E= -1277.57704450200     Delta-E=       -0.039803267132 Rises=F Damp=F
 DIIS: error= 3.59D-03 at cycle   5 NSaved=   5.
 NSaved= 5 IEnMin= 5 EnMin= -1277.57704450200     IErMin= 5 ErrMin= 3.59D-03
 ErrMax= 3.59D-03  0.00D+00 EMaxC= 1.00D-01 BMatC= 7.67D-03 BMatP= 5.28D-02
 IDIUse=3 WtCom= 9.64D-01 WtEn= 3.59D-02
 Coeff-Com:  0.341D-01 0.123D-01 0.163D+00 0.371D+00 0.420D+00
 Coeff-En:   0.000D+00 0.000D+00 0.000D+00 0.115D+00 0.885D+00
 Coeff:      0.329D-01 0.118D-01 0.157D+00 0.361D+00 0.436D+00
 Gap=     0.167 Goal=   None    Shift=    0.000
 RMSDP=2.54D-04 MaxDP=7.04D-03 DE=-3.98D-02 OVMax= 2.47D-02

 Cycle   6  Pass 0  IDiag  1:
 RMSU=  1.48D-04    CP:  1.01D+00  4.13D-01  4.48D-01  6.40D-01  4.03D-01
 E= -1277.58177243412     Delta-E=       -0.004727932124 Rises=F Damp=F
 DIIS: error= 2.67D-03 at cycle   6 NSaved=   6.
 NSaved= 6 IEnMin= 6 EnMin= -1277.58177243412     IErMin= 6 ErrMin= 2.67D-03
 ErrMax= 2.67D-03  0.00D+00 EMaxC= 1.00D-01 BMatC= 2.47D-03 BMatP= 7.67D-03
 IDIUse=3 WtCom= 9.73D-01 WtEn= 2.67D-02
 Coeff-Com:  0.127D-01-0.711D-03 0.781D-01 0.198D+00 0.352D+00 0.360D+00
 Coeff-En:   0.000D+00 0.000D+00 0.000D+00 0.000D+00 0.276D+00 0.724D+00
 Coeff:      0.124D-01-0.692D-03 0.760D-01 0.193D+00 0.350D+00 0.370D+00
 Gap=     0.165 Goal=   None    Shift=    0.000
 RMSDP=1.21D-04 MaxDP=4.45D-03 DE=-4.73D-03 OVMax= 1.20D-02

 Cycle   7  Pass 0  IDiag  1:
 RMSU=  6.41D-05    CP:  1.01D+00  4.09D-01  4.46D-01  6.41D-01  5.15D-01
                    CP:  3.58D-01
 E= -1277.58359241414     Delta-E=       -0.001819980021 Rises=F Damp=F
 DIIS: error= 6.86D-04 at cycle   7 NSaved=   7.
 NSaved= 7 IEnMin= 7 EnMin= -1277.58359241414     IErMin= 7 ErrMin= 6.86D-04
 ErrMax= 6.86D-04  0.00D+00 EMaxC= 1.00D-01 BMatC= 2.85D-04 BMatP= 2.47D-03
 IDIUse=3 WtCom= 9.93D-01 WtEn= 6.86D-03
 Coeff-Com:  0.405D-02-0.372D-02 0.280D-01 0.736D-01 0.183D+00 0.277D+00
 Coeff-Com:  0.438D+00
 Coeff-En:   0.000D+00 0.000D+00 0.000D+00 0.000D+00 0.000D+00 0.100D+00
 Coeff-En:   0.900D+00
 Coeff:      0.402D-02-0.369D-02 0.278D-01 0.731D-01 0.181D+00 0.276D+00
 Coeff:      0.441D+00
 Gap=     0.164 Goal=   None    Shift=    0.000
 RMSDP=4.27D-05 MaxDP=1.46D-03 DE=-1.82D-03 OVMax= 3.48D-03

 Cycle   8  Pass 0  IDiag  1:
 RMSU=  2.15D-05    CP:  1.01D+00  4.08D-01  4.52D-01  6.38D-01  5.18D-01
                    CP:  4.55D-01  5.04D-01
 E= -1277.58379648669     Delta-E=       -0.000204072548 Rises=F Damp=F
 DIIS: error= 4.01D-04 at cycle   8 NSaved=   8.
 NSaved= 8 IEnMin= 8 EnMin= -1277.58379648669     IErMin= 8 ErrMin= 4.01D-04
 ErrMax= 4.01D-04  0.00D+00 EMaxC= 1.00D-01 BMatC= 3.48D-05 BMatP= 2.85D-04
 IDIUse=3 WtCom= 9.96D-01 WtEn= 4.01D-03
 Coeff-Com:  0.213D-02-0.273D-02 0.119D-01 0.297D-01 0.907D-01 0.156D+00
 Coeff-Com:  0.317D+00 0.395D+00
 Coeff-En:   0.000D+00 0.000D+00 0.000D+00 0.000D+00 0.000D+00 0.000D+00
 Coeff-En:   0.102D+00 0.898D+00
 Coeff:      0.212D-02-0.272D-02 0.118D-01 0.296D-01 0.904D-01 0.155D+00
 Coeff:      0.316D+00 0.397D+00
 Gap=     0.164 Goal=   None    Shift=    0.000
 RMSDP=1.55D-05 MaxDP=3.66D-04 DE=-2.04D-04 OVMax= 2.19D-03

 Cycle   9  Pass 0  IDiag  1:
 RMSU=  6.96D-06    CP:  1.01D+00  4.08D-01  4.51D-01  6.36D-01  5.21D-01
                    CP:  4.55D-01  5.21D-01  3.63D-01
 E= -1277.58382851779     Delta-E=       -0.000032031105 Rises=F Damp=F
 DIIS: error= 1.59D-04 at cycle   9 NSaved=   9.
 NSaved= 9 IEnMin= 9 EnMin= -1277.58382851779     IErMin= 9 ErrMin= 1.59D-04
 ErrMax= 1.59D-04  0.00D+00 EMaxC= 1.00D-01 BMatC= 4.07D-06 BMatP= 3.48D-05
 IDIUse=3 WtCom= 9.98D-01 WtEn= 1.59D-03
 Coeff-Com:  0.999D-03-0.133D-02 0.301D-02 0.561D-02 0.259D-01 0.493D-01
 Coeff-Com:  0.127D+00 0.265D+00 0.524D+00
 Coeff-En:   0.000D+00 0.000D+00 0.000D+00 0.000D+00 0.000D+00 0.000D+00
 Coeff-En:   0.000D+00 0.876D-01 0.912D+00
 Coeff:      0.998D-03-0.133D-02 0.300D-02 0.560D-02 0.259D-01 0.492D-01
 Coeff:      0.127D+00 0.265D+00 0.525D+00
 Gap=     0.165 Goal=   None    Shift=    0.000
 RMSDP=5.60D-06 MaxDP=2.53D-04 DE=-3.20D-05 OVMax= 7.12D-04

 Initial convergence to 1.0D-05 achieved.  Increase integral accuracy.
 Cycle  10  Pass 1  IDiag  1:
 E= -1277.58387227288     Delta-E=       -0.000043755084 Rises=F Damp=F
 DIIS: error= 1.01D-04 at cycle   1 NSaved=   1.
 NSaved= 1 IEnMin= 1 EnMin= -1277.58387227288     IErMin= 1 ErrMin= 1.01D-04
 ErrMax= 1.01D-04  0.00D+00 EMaxC= 1.00D-01 BMatC= 1.85D-06 BMatP= 1.85D-06
 IDIUse=3 WtCom= 9.99D-01 WtEn= 1.01D-03
 Coeff-Com:  0.100D+01
 Coeff-En:   0.100D+01
 Coeff:      0.100D+01
 Gap=     0.164 Goal=   None    Shift=    0.000
 RMSDP=5.60D-06 MaxDP=2.53D-04 DE=-4.38D-05 OVMax= 5.17D-04

 Cycle  11  Pass 1  IDiag  1:
 RMSU=  7.97D-05    CP:  1.00D+00
 E= -1277.58387085834     Delta-E=        0.000001414535 Rises=F Damp=F
 DIIS: error= 1.54D-04 at cycle   2 NSaved=   2.
 NSaved= 2 IEnMin= 1 EnMin= -1277.58387227288     IErMin= 1 ErrMin= 1.01D-04
 ErrMax= 1.54D-04  0.00D+00 EMaxC= 1.00D-01 BMatC= 3.74D-06 BMatP= 1.85D-06
 IDIUse=3 WtCom= 4.46D-01 WtEn= 5.54D-01
 Coeff-Com:  0.610D+00 0.390D+00
 Coeff-En:   0.649D+00 0.351D+00
 Coeff:      0.631D+00 0.369D+00
 Gap=     0.164 Goal=   None    Shift=    0.000
 RMSDP=5.85D-06 MaxDP=2.71D-04 DE= 1.41D-06 OVMax= 4.81D-04

 Cycle  12  Pass 1  IDiag  1:
 RMSU=  5.83D-06    CP:  1.00D+00  9.94D-01
 E= -1277.58387379825     Delta-E=       -0.000002939908 Rises=F Damp=F
 DIIS: error= 4.64D-05 at cycle   3 NSaved=   3.
 NSaved= 3 IEnMin= 3 EnMin= -1277.58387379825     IErMin= 3 ErrMin= 4.64D-05
 ErrMax= 4.64D-05  0.00D+00 EMaxC= 1.00D-01 BMatC= 6.32D-07 BMatP= 1.85D-06
 IDIUse=1 WtCom= 1.00D+00 WtEn= 0.00D+00
 Coeff-Com:  0.128D+00 0.277D+00 0.596D+00
 Coeff:      0.128D+00 0.277D+00 0.596D+00
 Gap=     0.165 Goal=   None    Shift=    0.000
 RMSDP=2.54D-06 MaxDP=9.90D-05 DE=-2.94D-06 OVMax= 2.20D-04

 Cycle  13  Pass 1  IDiag  1:
 RMSU=  2.11D-06    CP:  1.00D+00  9.95D-01  7.59D-01
 E= -1277.58387404168     Delta-E=       -0.000000243427 Rises=F Damp=F
 DIIS: error= 2.43D-05 at cycle   4 NSaved=   4.
 NSaved= 4 IEnMin= 4 EnMin= -1277.58387404168     IErMin= 4 ErrMin= 2.43D-05
 ErrMax= 2.43D-05  0.00D+00 EMaxC= 1.00D-01 BMatC= 3.16D-07 BMatP= 6.32D-07
 IDIUse=1 WtCom= 1.00D+00 WtEn= 0.00D+00
 Coeff-Com:  0.858D-02 0.161D+00 0.473D+00 0.358D+00
 Coeff:      0.858D-02 0.161D+00 0.473D+00 0.358D+00
 Gap=     0.164 Goal=   None    Shift=    0.000
 RMSDP=1.39D-06 MaxDP=5.70D-05 DE=-2.43D-07 OVMax= 1.19D-04

 Cycle  14  Pass 1  IDiag  1:
 RMSU=  4.50D-07    CP:  1.00D+00  9.95D-01  7.58D-01  3.84D-01
 E= -1277.58387430708     Delta-E=       -0.000000265405 Rises=F Damp=F
 DIIS: error= 6.16D-06 at cycle   5 NSaved=   5.
 NSaved= 5 IEnMin= 5 EnMin= -1277.58387430708     IErMin= 5 ErrMin= 6.16D-06
 ErrMax= 6.16D-06  0.00D+00 EMaxC= 1.00D-01 BMatC= 1.91D-08 BMatP= 3.16D-07
 IDIUse=1 WtCom= 1.00D+00 WtEn= 0.00D+00
 Coeff-Com:  0.821D-03 0.108D+00 0.325D+00 0.267D+00 0.299D+00
 Coeff:      0.821D-03 0.108D+00 0.325D+00 0.267D+00 0.299D+00
 Gap=     0.164 Goal=   None    Shift=    0.000
 RMSDP=3.28D-07 MaxDP=1.16D-05 DE=-2.65D-07 OVMax= 3.14D-05

 Cycle  15  Pass 1  IDiag  1:
 RMSU=  9.46D-08    CP:  1.00D+00  9.95D-01  7.56D-01  3.83D-01  3.06D-01
 E= -1277.58387430859     Delta-E=       -0.000000001510 Rises=F Damp=F
 DIIS: error= 1.11D-06 at cycle   6 NSaved=   6.
 NSaved= 6 IEnMin= 6 EnMin= -1277.58387430859     IErMin= 6 ErrMin= 1.11D-06
 ErrMax= 1.11D-06  0.00D+00 EMaxC= 1.00D-01 BMatC= 7.52D-10 BMatP= 1.91D-08
 IDIUse=1 WtCom= 1.00D+00 WtEn= 0.00D+00
 Coeff-Com:  0.847D-06 0.652D-01 0.198D+00 0.165D+00 0.211D+00 0.361D+00
 Coeff:      0.847D-06 0.652D-01 0.198D+00 0.165D+00 0.211D+00 0.361D+00
 Gap=     0.164 Goal=   None    Shift=    0.000
 RMSDP=6.88D-08 MaxDP=4.28D-06 DE=-1.51D-09 OVMax= 4.88D-06

 Cycle  16  Pass 1  IDiag  1:
 RMSU=  3.33D-08    CP:  1.00D+00  9.95D-01  7.55D-01  3.83D-01  3.17D-01
                    CP:  3.83D-01
 E= -1277.58387432412     Delta-E=       -0.000000015526 Rises=F Damp=F
 DIIS: error= 2.47D-07 at cycle   7 NSaved=   7.
 NSaved= 7 IEnMin= 7 EnMin= -1277.58387432412     IErMin= 7 ErrMin= 2.47D-07
 ErrMax= 2.47D-07  0.00D+00 EMaxC= 1.00D-01 BMatC= 3.79D-11 BMatP= 7.52D-10
 IDIUse=1 WtCom= 1.00D+00 WtEn= 0.00D+00
 Coeff-Com: -0.490D-04 0.330D-01 0.100D+00 0.838D-01 0.111D+00 0.238D+00
 Coeff-Com:  0.434D+00
 Coeff:     -0.490D-04 0.330D-01 0.100D+00 0.838D-01 0.111D+00 0.238D+00
 Coeff:      0.434D+00
 Gap=     0.164 Goal=   None    Shift=    0.000
 RMSDP=1.81D-08 MaxDP=9.12D-07 DE=-1.55D-08 OVMax= 1.92D-06

 Cycle  17  Pass 1  IDiag  1:
 RMSU=  1.15D-08    CP:  1.00D+00  9.95D-01  7.55D-01  3.83D-01  3.22D-01
                    CP:  4.40D-01  6.35D-01
 E= -1277.58387432415     Delta-E=       -0.000000000033 Rises=F Damp=F
 DIIS: error= 1.74D-07 at cycle   8 NSaved=   8.
 NSaved= 8 IEnMin= 8 EnMin= -1277.58387432415     IErMin= 8 ErrMin= 1.74D-07
 ErrMax= 1.74D-07  0.00D+00 EMaxC= 1.00D-01 BMatC= 7.92D-12 BMatP= 3.79D-11
 IDIUse=1 WtCom= 1.00D+00 WtEn= 0.00D+00
 Coeff-Com: -0.368D-04 0.160D-01 0.487D-01 0.408D-01 0.549D-01 0.133D+00
 Coeff-Com:  0.323D+00 0.384D+00
 Coeff:     -0.368D-04 0.160D-01 0.487D-01 0.408D-01 0.549D-01 0.133D+00
 Coeff:      0.323D+00 0.384D+00
 Gap=     0.164 Goal=   None    Shift=    0.000
 RMSDP=7.34D-09 MaxDP=2.15D-07 DE=-3.27D-11 OVMax= 9.65D-07

 SCF Done:  E(RB-P86) =  -1277.58387432     A.U. after   17 cycles
            NFock= 17  Conv=0.73D-08     -V/T= 2.0027
 KE= 1.274150311333D+03 PE=-6.572232057188D+03 EE= 2.231051450573D+03
 Leave Link  502 at Sun Jun 13 18:03:24 2021, MaxMem= 16106127360 cpu:             814.6 elap:              30.0
 (Enter /usr/public/gaussian//g16/l601.exe)
 Copying SCF densities to generalized density rwf, IOpCl= 0 IROHF=0.

 **********************************************************************

            Population analysis using the SCF density.

 **********************************************************************

 Orbital symmetries:
       Occupied  (A) (A) (A) (A) (A) (A) (A) (A) (A) (A) (A) (A)
                 (A) (A) (A) (A) (A) (A) (A) (A) (A) (A) (A) (A)
                 (A) (A) (A) (A) (A) (A) (A) (A) (A) (A) (A) (A)
                 (A) (A) (A) (A) (A) (A) (A) (A) (A) (A) (A) (A)
                 (A) (A) (A) (A) (A) (A) (A) (A) (A) (A) (A) (A)
                 (A) (A) (A) (A) (A) (A) (A) (A) (A) (A) (A) (A)
                 (A) (A) (A) (A) (A) (A) (A)
       Virtual   (A) (A) (A) (A) (A) (A) (A) (A) (A) (A) (A) (A)
                 (A) (A) (A) (A) (A) (A) (A) (A) (A) (A) (A) (A)
                 (A) (A) (A) (A) (A) (A) (A) (A) (A) (A) (A) (A)
                 (A) (A) (A) (A) (A) (A) (A) (A) (A) (A) (A) (A)
                 (A) (A) (A) (A) (A) (A) (A) (A) (A) (A) (A) (A)
                 (A) (A) (A) (A) (A) (A) (A) (A) (A) (A) (A) (A)
                 (A) (A) (A) (A) (A) (A) (A) (A) (A) (A) (A) (A)
                 (A) (A) (A) (A) (A) (A) (A) (A) (A) (A) (A) (A)
                 (A) (A) (A) (A) (A) (A) (A) (A) (A) (A) (A) (A)
                 (A) (A) (A) (A) (A) (A) (A) (A) (A) (A) (A) (A)
                 (A) (A) (A) (A) (A) (A) (A) (A) (A) (A) (A) (A)
                 (A) (A) (A) (A) (A) (A) (A) (A) (A) (A) (A) (A)
                 (A) (A) (A) (A) (A) (A) (A) (A) (A) (A) (A) (A)
                 (A) (A) (A) (A) (A) (A) (A) (A) (A) (A) (A) (A)
                 (A) (A) (A) (A) (A) (A) (A) (A) (A) (A) (A) (A)
                 (A) (A) (A) (A) (A) (A) (A) (A) (A) (A) (A) (A)
                 (A) (A) (A) (A) (A) (A) (A) (A) (A) (A) (A) (A)
                 (A) (A) (A) (A) (A) (A) (A) (A) (A) (A) (A) (A)
                 (A) (A) (A) (A) (A) (A) (A) (A) (A) (A) (A) (A)
                 (A) (A) (A) (A) (A) (A) (A) (A) (A) (A) (A) (A)
                 (A) (A) (A) (A) (A) (A) (A) (A) (A) (A) (A) (A)
                 (A) (A) (A) (A) (A) (A) (A) (A) (A) (A) (A) (A)
                 (A) (A) (A) (A) (A) (A) (A) (A) (A) (A) (A) (A)
                 (A) (A) (A) (A) (A) (A) (A) (A) (A) (A) (A) (A)
                 (A) (A) (A) (A) (A) (A) (A) (A) (A) (A) (A) (A)
                 (A) (A) (A) (A) (A) (A) (A) (A) (A) (A) (A) (A)
                 (A) (A) (A) (A) (A) (A) (A) (A) (A) (A) (A) (A)
                 (A) (A) (A) (A) (A) (A) (A) (A) (A) (A) (A) (A)
                 (A) (A) (A) (A) (A) (A) (A) (A) (A) (A) (A) (A)
                 (A) (A) (A) (A) (A) (A) (A)
 The electronic state is 1-A.
 Alpha  occ. eigenvalues --  -88.29723 -18.75907 -18.75446 -14.06209 -14.06019
 Alpha  occ. eigenvalues --   -9.98864  -9.97135  -9.96644  -9.95634  -9.93465
 Alpha  occ. eigenvalues --   -9.92776  -9.91950  -9.91730  -9.91595  -9.91509
 Alpha  occ. eigenvalues --   -9.91466  -9.91400  -9.91353  -9.91339  -9.91315
 Alpha  occ. eigenvalues --   -9.91297  -7.86598  -5.88634  -5.88550  -5.88440
 Alpha  occ. eigenvalues --   -1.01289  -0.93950  -0.88548  -0.88429  -0.80060
 Alpha  occ. eigenvalues --   -0.79961  -0.72767  -0.72435  -0.69665  -0.69571
 Alpha  occ. eigenvalues --   -0.67935  -0.67276  -0.62076  -0.59484  -0.57718
 Alpha  occ. eigenvalues --   -0.56815  -0.55538  -0.54494  -0.54362  -0.50153
 Alpha  occ. eigenvalues --   -0.48944  -0.47673  -0.46830  -0.45262  -0.45102
 Alpha  occ. eigenvalues --   -0.43627  -0.42321  -0.41971  -0.41804  -0.40552
 Alpha  occ. eigenvalues --   -0.39970  -0.39544  -0.39452  -0.38541  -0.38177
 Alpha  occ. eigenvalues --   -0.38057  -0.36464  -0.34467  -0.34236  -0.34059
 Alpha  occ. eigenvalues --   -0.32722  -0.32411  -0.32154  -0.32110  -0.29746
 Alpha  occ. eigenvalues --   -0.27967  -0.27532  -0.26594  -0.24894  -0.24771
 Alpha  occ. eigenvalues --   -0.24736  -0.24304  -0.23561  -0.23037
 Alpha virt. eigenvalues --   -0.06588  -0.06250  -0.05996  -0.05881  -0.03884
 Alpha virt. eigenvalues --   -0.01113   0.00319   0.01211   0.01894   0.02565
 Alpha virt. eigenvalues --    0.03083   0.03409   0.04252   0.05213   0.05574
 Alpha virt. eigenvalues --    0.06229   0.06621   0.07270   0.07643   0.07699
 Alpha virt. eigenvalues --    0.08390   0.08717   0.09427   0.09780   0.11006
 Alpha virt. eigenvalues --    0.11627   0.12114   0.13236   0.14188   0.14676
 Alpha virt. eigenvalues --    0.16311   0.17699   0.18564   0.19811   0.20920
 Alpha virt. eigenvalues --    0.21496   0.22374   0.22582   0.23011   0.23546
 Alpha virt. eigenvalues --    0.23562   0.24268   0.24989   0.25112   0.26305
 Alpha virt. eigenvalues --    0.27355   0.28542   0.29801   0.30833   0.31967
 Alpha virt. eigenvalues --    0.32291   0.33097   0.33804   0.34448   0.34843
 Alpha virt. eigenvalues --    0.35331   0.35396   0.36023   0.37032   0.37451
 Alpha virt. eigenvalues --    0.37886   0.38233   0.38369   0.38541   0.39215
 Alpha virt. eigenvalues --    0.39567   0.40367   0.40475   0.41033   0.42206
 Alpha virt. eigenvalues --    0.43092   0.44178   0.45262   0.45805   0.46578
 Alpha virt. eigenvalues --    0.47490   0.47570   0.48458   0.48922   0.49572
 Alpha virt. eigenvalues --    0.49756   0.50537   0.51602   0.52272   0.53129
 Alpha virt. eigenvalues --    0.54394   0.54762   0.54970   0.55376   0.55412
 Alpha virt. eigenvalues --    0.56301   0.56799   0.57234   0.57764   0.57947
 Alpha virt. eigenvalues --    0.58774   0.59526   0.59668   0.60233   0.60885
 Alpha virt. eigenvalues --    0.61486   0.63753   0.64015   0.64918   0.66153
 Alpha virt. eigenvalues --    0.68369   0.68680   0.69198   0.69265   0.70184
 Alpha virt. eigenvalues --    0.70967   0.71643   0.73016   0.73532   0.74019
 Alpha virt. eigenvalues --    0.74822   0.75905   0.77429   0.77620   0.78179
 Alpha virt. eigenvalues --    0.78935   0.79387   0.80063   0.81295   0.82281
 Alpha virt. eigenvalues --    0.83479   0.84993   0.86240   0.87949   0.88362
 Alpha virt. eigenvalues --    0.90760   0.91266   0.92955   0.93591   0.94023
 Alpha virt. eigenvalues --    0.95543   0.95895   0.96063   0.96348   0.99066
 Alpha virt. eigenvalues --    0.99471   0.99791   1.00136   1.02655   1.02817
 Alpha virt. eigenvalues --    1.03311   1.04157   1.07122   1.09808   1.11556
 Alpha virt. eigenvalues --    1.12136   1.12525   1.14485   1.14840   1.16185
 Alpha virt. eigenvalues --    1.16682   1.17328   1.19321   1.19686   1.20757
 Alpha virt. eigenvalues --    1.25329   1.26833   1.28532   1.29927   1.32113
 Alpha virt. eigenvalues --    1.34586   1.35904   1.36858   1.37208   1.38208
 Alpha virt. eigenvalues --    1.39986   1.40128   1.41381   1.41556   1.43133
 Alpha virt. eigenvalues --    1.44695   1.46675   1.46772   1.49954   1.50972
 Alpha virt. eigenvalues --    1.51983   1.54213   1.55704   1.56369   1.58194
 Alpha virt. eigenvalues --    1.59703   1.60730   1.61615   1.62355   1.63581
 Alpha virt. eigenvalues --    1.65447   1.67179   1.67378   1.69063   1.69914
 Alpha virt. eigenvalues --    1.72218   1.73097   1.74287   1.75427   1.75723
 Alpha virt. eigenvalues --    1.76220   1.77654   1.78447   1.79918   1.80202
 Alpha virt. eigenvalues --    1.81662   1.82568   1.83160   1.83378   1.83777
 Alpha virt. eigenvalues --    1.84148   1.84856   1.85859   1.89085   1.89991
 Alpha virt. eigenvalues --    1.94902   1.95460   2.01595   2.04316   2.05911
 Alpha virt. eigenvalues --    2.11238   2.12317   2.13310   2.14188   2.15492
 Alpha virt. eigenvalues --    2.16014   2.16650   2.17118   2.18006   2.18543
 Alpha virt. eigenvalues --    2.19638   2.20317   2.20905   2.22251   2.23884
 Alpha virt. eigenvalues --    2.24172   2.26754   2.28853   2.30276   2.31352
 Alpha virt. eigenvalues --    2.34660   2.35662   2.36731   2.40497   2.41275
 Alpha virt. eigenvalues --    2.43965   2.46009   2.47342   2.47706   2.50847
 Alpha virt. eigenvalues --    2.51581   2.54555   2.57230   2.58008   2.59618
 Alpha virt. eigenvalues --    2.60032   2.60624   2.61525   2.64752   2.65901
 Alpha virt. eigenvalues --    2.66734   2.67760   2.73120   2.74229   2.74297
 Alpha virt. eigenvalues --    2.74858   2.75411   2.75757   2.76128   2.76795
 Alpha virt. eigenvalues --    2.78073   2.79594   2.80058   2.81422   2.83497
 Alpha virt. eigenvalues --    2.92065   2.93510   2.94101   2.94746   2.97606
 Alpha virt. eigenvalues --    3.00916   3.02490   3.04075   3.07193   3.09953
 Alpha virt. eigenvalues --    3.11649   3.13808   3.15953   3.16495   3.17697
 Alpha virt. eigenvalues --    3.18567   3.18839   3.19253   3.19476   3.19930
 Alpha virt. eigenvalues --    3.22507   3.23345   3.25000   3.26706   3.29427
 Alpha virt. eigenvalues --    3.29790   3.34841   3.37581   3.39357   3.43936
 Alpha virt. eigenvalues --    3.44868   3.45718   3.55872   3.58623   3.72130
 Alpha virt. eigenvalues --    3.77579   3.82251   3.82967   3.84631   3.84649
 Alpha virt. eigenvalues --    3.88192   3.99674   4.05066   4.20770   4.24963
 Alpha virt. eigenvalues --    4.54402   4.61131   4.66793   4.66919   4.71782
 Alpha virt. eigenvalues --    4.74777   4.76235   4.81443   4.87891   4.96410
 Alpha virt. eigenvalues --    7.79087  16.99201  17.08087  17.10942  22.94228
 Alpha virt. eigenvalues --   22.94653  23.26508  23.33770  23.45898  23.51523
 Alpha virt. eigenvalues --   23.51986  23.52393  23.54919  23.56393  23.73841
 Alpha virt. eigenvalues --   23.73865  23.74800  23.74975  23.84853  23.84931
 Alpha virt. eigenvalues --   35.09118  35.12296  49.38832  49.43473 188.13725
          Condensed to atoms (all electrons):
               1          2          3          4          5          6
     1  C    4.970389   0.491362  -0.024489  -0.046347  -0.039556   0.516171
     2  C    0.491362   5.053641   0.531690  -0.063758  -0.041447  -0.044689
     3  C   -0.024489   0.531690   5.221500   0.456468  -0.018176  -0.042349
     4  C   -0.046347  -0.063758   0.456468   5.044528   0.521915  -0.047526
     5  C   -0.039556  -0.041447  -0.018176   0.521915   4.933908   0.524241
     6  C    0.516171  -0.044689  -0.042349  -0.047526   0.524241   4.957038
     7  H    0.397272  -0.044745   0.006187   0.000064   0.006803  -0.045333
     8  H   -0.045197   0.393799  -0.036219   0.006806  -0.000443   0.006444
     9  H   -0.000171   0.006256  -0.055641   0.394132  -0.039351   0.006743
    10  H    0.006834   0.000158   0.006764  -0.045961   0.396056  -0.044783
    11  H   -0.045822   0.007126  -0.000259   0.007735  -0.046372   0.397092
    12  C    0.009489  -0.081095   0.168701  -0.052555   0.005546   0.000308
    13  C   -0.000206   0.004663  -0.083883  -0.009816  -0.000079   0.000079
    14  H    0.000004  -0.000453  -0.002424   0.003251   0.000251   0.000005
    15  H   -0.000054   0.001123  -0.000619   0.001274  -0.000353  -0.000037
    16  N    0.000001   0.000063   0.007925  -0.000070   0.000001  -0.000000
    17  S   -0.000218  -0.003244  -0.004992   0.000410  -0.000070   0.000010
    18  N    0.000690  -0.009541  -0.033293   0.005121  -0.000108  -0.000004
    19  O    0.000000   0.000005  -0.000342   0.000001  -0.000000  -0.000000
    20  O   -0.000002  -0.000139  -0.000314   0.000000  -0.000000   0.000000
    21  C   -0.000000  -0.000016  -0.000130   0.000003  -0.000001   0.000000
    22  C   -0.000000   0.000001   0.000061  -0.000022  -0.000000   0.000000
    23  H   -0.000000  -0.000000   0.000020  -0.000001   0.000000   0.000000
    24  H    0.000000  -0.000014  -0.000748   0.000121   0.000001  -0.000000
    25  C   -0.000000   0.000000   0.000004  -0.000022  -0.000000   0.000000
    26  C   -0.000000   0.000000   0.000000  -0.000001  -0.000000   0.000000
    27  C    0.000000  -0.000000  -0.000005   0.000002   0.000000  -0.000000
    28  C    0.000000  -0.000000   0.000000   0.000000   0.000000  -0.000000
    29  C   -0.000000  -0.000000  -0.000000   0.000000   0.000000   0.000000
    30  H    0.000000   0.000000  -0.000000   0.000000  -0.000000  -0.000000
    31  H   -0.000000  -0.000000   0.000000  -0.000000  -0.000000   0.000000
    32  H   -0.000000  -0.000000  -0.000026   0.000004   0.000000   0.000000
    33  H   -0.000000  -0.000000   0.000000  -0.000000  -0.000000   0.000000
    34  H    0.000000  -0.000000  -0.000006   0.000000   0.000000  -0.000000
    35  C   -0.000442  -0.010350  -0.094890   0.002954  -0.000266   0.000055
    36  H   -0.000081   0.002583   0.001110  -0.000497  -0.000005  -0.000043
    37  H    0.000029   0.000016  -0.002288   0.000421  -0.000003  -0.000004
               7          8          9         10         11         12
     1  C    0.397272  -0.045197  -0.000171   0.006834  -0.045822   0.009489
     2  C   -0.044745   0.393799   0.006256   0.000158   0.007126  -0.081095
     3  C    0.006187  -0.036219  -0.055641   0.006764  -0.000259   0.168701
     4  C    0.000064   0.006806   0.394132  -0.045961   0.007735  -0.052555
     5  C    0.006803  -0.000443  -0.039351   0.396056  -0.046372   0.005546
     6  C   -0.045333   0.006444   0.006743  -0.044783   0.397092   0.000308
     7  H    0.487356  -0.006196   0.000090  -0.000374  -0.007093  -0.000405
     8  H   -0.006196   0.453649  -0.000246   0.000076  -0.000318  -0.017218
     9  H    0.000090  -0.000246   0.497594  -0.007101  -0.000373  -0.007213
    10  H   -0.000374   0.000076  -0.007101   0.494417  -0.007149  -0.000681
    11  H   -0.007093  -0.000318  -0.000373  -0.007149   0.493546   0.000059
    12  C   -0.000405  -0.017218  -0.007213  -0.000681   0.000059   5.777187
    13  C    0.000009   0.000238   0.002177  -0.000043  -0.000000   0.268641
    14  H    0.000000  -0.000065   0.002324  -0.000002  -0.000000  -0.028601
    15  H    0.000001   0.000193   0.000048   0.000001  -0.000000  -0.059934
    16  N   -0.000000   0.000007  -0.000062   0.000000   0.000000  -0.017920
    17  S   -0.000000  -0.001123  -0.000151  -0.000001   0.000000  -0.038720
    18  N   -0.000035   0.012869  -0.000018   0.000005   0.000000   0.136382
    19  O    0.000000  -0.000031  -0.000000   0.000000  -0.000000  -0.004384
    20  O   -0.000000  -0.000118  -0.000001  -0.000000   0.000000  -0.005945
    21  C    0.000000   0.000000   0.000024  -0.000000   0.000000  -0.004065
    22  C   -0.000000   0.000001   0.000003  -0.000000   0.000000   0.001334
    23  H   -0.000000   0.000000  -0.000002  -0.000000   0.000000  -0.000569
    24  H    0.000000  -0.000002   0.000051  -0.000000  -0.000000   0.004710
    25  C   -0.000000  -0.000000   0.000063  -0.000000   0.000000  -0.000330
    26  C   -0.000000   0.000000   0.000009  -0.000000   0.000000   0.000004
    27  C    0.000000   0.000000   0.000002   0.000000  -0.000000   0.000403
    28  C    0.000000   0.000000  -0.000001   0.000000  -0.000000   0.000004
    29  C    0.000000  -0.000000   0.000001  -0.000000   0.000000  -0.000001
    30  H    0.000000  -0.000000  -0.000000   0.000000  -0.000000  -0.000000
    31  H   -0.000000  -0.000000  -0.000000  -0.000000   0.000000  -0.000000
    32  H    0.000000  -0.000000   0.000030  -0.000000  -0.000000   0.000042
    33  H    0.000000  -0.000000  -0.000000  -0.000000  -0.000000   0.000000
    34  H    0.000000  -0.000000   0.000000  -0.000000  -0.000000   0.000018
    35  C    0.000012   0.000234   0.000570   0.000008   0.000001   0.090968
    36  H    0.000013  -0.000439  -0.000066   0.000004  -0.000003  -0.025029
    37  H   -0.000001   0.000016  -0.000017  -0.000000   0.000000  -0.023646
              13         14         15         16         17         18
     1  C   -0.000206   0.000004  -0.000054   0.000001  -0.000218   0.000690
     2  C    0.004663  -0.000453   0.001123   0.000063  -0.003244  -0.009541
     3  C   -0.083883  -0.002424  -0.000619   0.007925  -0.004992  -0.033293
     4  C   -0.009816   0.003251   0.001274  -0.000070   0.000410   0.005121
     5  C   -0.000079   0.000251  -0.000353   0.000001  -0.000070  -0.000108
     6  C    0.000079   0.000005  -0.000037  -0.000000   0.000010  -0.000004
     7  H    0.000009   0.000000   0.000001  -0.000000  -0.000000  -0.000035
     8  H    0.000238  -0.000065   0.000193   0.000007  -0.001123   0.012869
     9  H    0.002177   0.002324   0.000048  -0.000062  -0.000151  -0.000018
    10  H   -0.000043  -0.000002   0.000001   0.000000  -0.000001   0.000005
    11  H   -0.000000  -0.000000  -0.000000   0.000000   0.000000   0.000000
    12  C    0.268641  -0.028601  -0.059934  -0.017920  -0.038720   0.136382
    13  C    5.396600   0.361438   0.390083   0.256604  -0.075494  -0.044705
    14  H    0.361438   0.448322  -0.027605  -0.023035   0.001422   0.004615
    15  H    0.390083  -0.027605   0.445551  -0.035685  -0.001575  -0.005705
    16  N    0.256604  -0.023035  -0.035685   7.088646   0.117110  -0.059618
    17  S   -0.075494   0.001422  -0.001575   0.117110  14.190002   0.114259
    18  N   -0.044705   0.004615  -0.005705  -0.059618   0.114259   7.174857
    19  O    0.003784  -0.000148  -0.000184  -0.041282   0.358681  -0.033174
    20  O    0.006520  -0.000151   0.001242  -0.040865   0.439727  -0.036500
    21  C   -0.086799  -0.009234   0.006732   0.217526  -0.033911  -0.000983
    22  C   -0.019064   0.004599   0.000676  -0.052769   0.003660  -0.000445
    23  H    0.006238   0.000747  -0.000170  -0.030973  -0.006740   0.000023
    24  H   -0.003033   0.001398  -0.001026  -0.040649  -0.016577   0.001447
    25  C   -0.000709   0.004067   0.000131   0.000080  -0.000030  -0.000002
    26  C   -0.000301   0.000317  -0.000014  -0.000155  -0.000018  -0.000000
    27  C    0.000490   0.000201  -0.000514   0.004862  -0.001333   0.000001
    28  C   -0.000060  -0.000372   0.000041  -0.000326  -0.000133  -0.000000
    29  C    0.000042  -0.000175   0.000002   0.000037   0.000010   0.000000
    30  H    0.000000   0.000005  -0.000000   0.000001   0.000000   0.000000
    31  H    0.000003   0.000000   0.000002  -0.000021   0.000000   0.000000
    32  H    0.000362   0.000202  -0.000017  -0.000057  -0.000025   0.000003
    33  H    0.000003  -0.000011  -0.000000   0.000006  -0.000001   0.000000
[...]
 0.00000199,0.00000815,-0.00000050,-0.00000656,0.00000489,0.00000745,-0
 .00000348,-0.00000565,-0.00000723,-0.00000022,-0.00000274,-0.00000195,
 0.00000054,-0.00001208,0.00003850,0.00000809,0.00004687,0.00013931,0.0
 0000968,0.00001665,0.00001132,-0.00000700,-0.00001817,-0.00001104,0.00
 000996,-0.00040320,0.00022474,0.00008045,0.00021229,-0.00026024,-0.000
 05048,-0.00014117,-0.00005579,-0.00003366,-0.00006600,0.00005483,0.000
 00684,-0.00006310,0.00005818,0.00007219,0.00019606,0.00046628,0.000885
 05,-0.00109769,0.00433783,-0.00385437,-0.00007940,0.00005356,-0.000090
 13,-0.00005359,-0.00005852,-0.00003014,-0.00961003,0.01364750,0.016410
 27,-0.12553096,0.09419705,0.08145262,-0.00048587,-0.00029789,-0.000751
 10,0.00240955,0.00205111,-0.00275000,0.00729209,-0.00554987,-0.0055198
 1,-0.00058199,-0.00179182,0.00097110,0.00032405,-0.00013263,-0.0004116
 1,-0.00052639,-0.00196619,0.00035042,0.12855489,-0.00000358,0.00000055
 ,0.00000185,0.00000826,0.00000887,-0.00000179,-0.00000791,-0.00001652,
 0.00001696,0.00000947,0.00000155,-0.00000215,0.00000209,-0.00000348,0.
 00000006,0.00000302,0.00000306,0.00000034,0.00000274,-0.00000021,-0.00
 000321,-0.00000618,0.,0.00000396,-0.00000334,-0.00000368,-0.00000512,-
 0.00000032,0.00000368,-0.00000081,0.00000245,0.00000256,-0.00000179,-0
 .00001167,-0.00003990,-0.00001729,-0.00005480,-0.00005802,0.00000741,-
 0.00001519,-0.00000695,-0.00000798,0.00000801,0.00001449,-0.00000795,0
 .00042588,-0.00032790,-0.00007513,-0.00013259,0.00030688,0.00006488,0.
 00015630,0.00000893,0.00002792,0.00002649,-0.00009693,0.00002729,0.000
 04666,-0.00006341,-0.00005735,-0.00007512,0.00008369,-0.00058188,0.004
 46206,0.00387820,0.00081968,0.00006824,-0.00004206,-0.00004080,0.00003
 581,-0.00002241,0.00000212,0.00576104,-0.00557324,-0.00897234,0.094266
 04,-0.13174271,-0.09730299,-0.00043093,-0.00008921,0.00046822,0.001874
 72,0.00467743,-0.00171324,0.00221732,0.00021886,-0.00066261,-0.0019964
 0,-0.00188391,0.00067107,0.00030239,0.00009313,-0.00007158,-0.00180083
 ,-0.00181460,0.00109806,-0.10464728,0.13328164,-0.00000071,0.00000071,
 0.00000105,0.00000295,0.00000420,0.00000101,-0.00000532,-0.00000777,0.
 00000459,0.00000411,0.00000149,-0.00000375,-0.00000061,-0.00000285,-0.
 00000150,0.00000146,0.00000160,-0.00000076,0.00000073,0.00000003,-0.00
 000095,-0.00000241,0.00000048,0.00000081,-0.00000114,-0.00000397,0.000
 00111,0.00000173,0.00000249,0.00000098,0.00000159,0.00000076,-0.000000
 58,-0.00001103,0.00000030,0.00000524,-0.00000541,-0.00001132,-0.000010
 19,-0.00000777,-0.00000704,0.00000427,-0.00000525,-0.00000322,-0.00000
 147,-0.00006287,0.00012759,0.00000758,-0.00012523,0.00000696,-0.000023
 52,-0.00001327,0.00001237,-0.00000250,0.00002711,-0.00000172,-0.000003
 87,0.00002054,0.00000280,0.00001978,-0.00032645,0.00015043,0.00038831,
 -0.00304819,0.00012735,0.00057055,0.00001920,0.00001352,-0.00001537,0.
 00000353,-0.00001473,0.00001204,-0.00669955,0.00751551,0.00936905,0.08
 160387,-0.09719982,-0.14686026,-0.00068387,0.00047866,-0.00047338,-0.0
 0366665,-0.00103996,-0.00422649,0.01762076,-0.01740983,-0.01230861,0.0
 0032004,0.00114188,0.00053030,0.00086402,-0.00094565,-0.00076890,0.000
 94958,0.00068699,0.00054998,-0.08702841,0.10615694,0.15326007,-0.00001
 213,-0.00000012,0.00000023,0.00002446,0.00002978,-0.00000132,-0.000018
 36,-0.00006523,0.00005211,0.00002316,0.00000008,-0.00002223,0.00000199
 ,-0.00000446,-0.00000272,0.00000900,0.00001097,-0.00000220,0.00000888,
 0.00000030,-0.00000624,-0.00001485,0.00000134,0.00001055,-0.00000614,-
 0.00001096,-0.00000252,0.00000396,0.00000967,0.00000091,0.00000682,0.0
 0000555,-0.00000192,0.00004759,-0.00003105,0.00003015,-0.00021964,-0.0
 0026874,-0.00015508,0.00002117,0.00003409,0.00002448,-0.00000733,-0.00
 002933,0.00002991,-0.00000330,-0.00009105,-0.00057297,-0.00081115,0.00
 099328,-0.00020837,0.00030682,0.00007097,0.00009135,0.00002708,-0.0002
 2316,0.00009643,0.00021293,-0.00020888,0.00012906,-0.00129136,-0.00132
 402,-0.00029996,0.00768532,-0.00466031,-0.00343627,0.00029516,-0.00022
 501,0.00020088,-0.00006071,-0.00005447,0.00028438,0.00162682,0.0018111
 8,-0.00270202,-0.00035273,-0.00022801,-0.00061395,-0.12961970,0.094383
 24,0.08502574,-0.00915802,0.01315259,0.01550620,-0.00088543,0.00410893
 ,-0.00368661,-0.00049123,0.00071646,0.00074109,-0.00047915,-0.00200828
 ,0.00039681,0.00042954,-0.00007914,-0.00057445,-0.00036728,-0.00049412
 ,0.00025277,0.13306450,-0.00000289,-0.00000111,0.00000476,0.00000341,0
 .00000610,0.00000676,0.00001192,-0.00001385,0.00000701,0.00000483,-0.0
 0000598,0.00000567,0.00000171,-0.00000861,0.00000247,0.00000006,-0.000
 00129,0.00000254,-0.00000014,0.00000055,-0.00000332,-0.00000370,0.0000
 0428,-0.00000480,-0.00000358,-0.00000105,-0.00000848,-0.00000172,0.000
 00230,-0.00000232,0.00000015,0.00000174,-0.00000289,-0.00011029,0.0000
 0209,0.00006209,-0.00017203,-0.00003631,-0.00031954,0.00002001,-0.0000
 1790,-0.00003064,-0.00025933,-0.00006947,0.00001942,0.00037980,-0.0004
 6107,0.00137052,-0.00000955,0.00081822,0.00046118,0.00006721,-0.000086
 72,-0.00007177,-0.00008926,-0.00033080,0.00006588,-0.00013005,-0.00017
 845,-0.00013256,-0.00016354,-0.00203484,0.00014790,0.00164811,0.001138
 40,-0.00257772,0.00022436,-0.00030518,0.00014306,-0.00025770,0.0000433
 0,-0.00007457,0.00176699,0.00408995,-0.00155659,-0.00029566,-0.0000959
 5,0.00044383,0.09386710,-0.12941822,-0.09415670,0.00596215,-0.00472659
 ,-0.00870424,0.00456994,0.00402299,0.00057047,0.00037736,-0.00015861,-
 0.00050429,-0.00200648,-0.00205813,0.00111336,0.00036497,0.00021362,-0
 .00001380,-0.00052776,-0.00079226,0.00021210,-0.10526665,0.13048040,-0
 .00000989,0.00000142,-0.00000328,0.00002416,0.00003763,-0.00000562,-0.
 00002846,-0.00007426,0.00005840,0.00003429,0.00000097,-0.00003278,-0.0
 0000150,-0.00000197,-0.00000187,0.00001133,0.00001220,-0.00000418,0.00
 000982,0.00000059,-0.00000502,-0.00001313,-0.00000187,0.00001479,-0.00
 000677,-0.00001187,0.00000127,0.00000673,0.00001100,0.00000149,0.00000
 712,0.00000499,-0.00000087,0.00008736,0.00000067,0.00000604,-0.0003888
 5,-0.00060845,0.00014476,0.00003369,0.00006855,0.00001543,0.00000683,0
 .00005803,-0.00006349,0.00103271,0.00015308,0.00138718,-0.00153563,0.0
 0093555,-0.00003330,0.00025428,0.00015054,0.00007686,0.00013187,-0.000
 08008,-0.00000067,0.00032562,-0.00013139,-0.00013827,0.00204571,-0.000
 04382,-0.00057115,0.01701214,-0.01732058,-0.01316678,-0.00034496,0.000
 29637,-0.00031157,0.00012493,0.00011662,0.00012331,-0.00341589,-0.0007
 2551,-0.00420274,-0.00068856,0.00045287,-0.00043990,0.08447060,-0.0947
 6912,-0.14748209,-0.00714075,0.00755640,0.01000791,-0.00308077,0.00017
 136,0.00042370,-0.00048513,0.00036054,0.00035843,0.00091979,0.00069236
 ,0.00051118,0.00079494,-0.00101320,-0.00083888,0.00026462,0.00018092,-
 0.00002590,-0.09050686,0.10356699,0.15429842,-0.00105270,0.00037790,-0
 .00089227,-0.00248431,-0.00286825,0.00107988,-0.00079129,0.00106119,0.
 02377304,0.00065952,0.00114023,-0.00019677,-0.00072099,0.00029909,-0.0
 0024679,-0.00024745,-0.00034541,0.00021840,-0.00027744,-0.00013909,0.0
 0016330,0.00077953,-0.00017566,0.00017803,0.00049556,-0.00030298,0.000
 04138,0.00001628,-0.00008463,-0.00001821,0.00005229,-0.00013263,0.0001
 0664,-0.06344991,-0.00443067,-0.00244881,0.00190205,0.00254064,-0.0309
 2603,0.00224634,-0.00010246,0.00118034,-0.00572039,0.00134675,-0.00178
 753,-0.00279168,-0.00088987,0.00179925,0.00189261,0.00163920,-0.026959
 58,-0.06222808,-0.00388630,0.03750496,0.00083831,0.00107478,0.00197428
 ,-0.00387211,-0.00549006,-0.00549300,0.00109011,-0.00026060,-0.0025804
 6,-0.00015383,0.00045504,0.00060200,-0.00006553,-0.00012407,-0.0001062
 7,-0.00019445,0.00061162,0.00086364,-0.00008520,-0.00001845,-0.0000910
 7,-0.00000528,0.00004849,0.00004776,0.00017273,-0.00020221,-0.00006692
 ,-0.00001557,0.00000591,0.00012066,0.00000643,-0.00000901,-0.00000274,
 -0.00000386,0.00000543,0.00000861,0.00003184,0.00000022,0.00001255,-0.
 00002952,0.00003416,0.00004386,-0.00000847,0.00000477,-0.00000160,0.00
 003705,0.00004127,0.00005931,0.62926777,-0.00042334,-0.00085575,-0.000
 19304,0.00226298,-0.00014306,-0.00048520,-0.00520713,-0.00844113,0.015
 17040,0.00007590,0.00166198,-0.00041180,-0.00030320,0.00018183,-0.0005
 9183,0.00005562,0.00041710,0.00026214,-0.00001094,0.00003154,-0.000143
 33,0.00039145,-0.00000911,-0.00023717,0.00020678,-0.00049477,-0.000063
 91,0.00007239,0.00002961,0.00000498,0.00004871,-0.00003179,0.00000230,
 -0.00018821,-0.05940263,0.07205042,0.00452760,-0.00302008,0.01194104,-
 0.00164629,0.00017272,-0.00062713,0.00023628,0.00035000,-0.00056696,0.
 00285044,-0.00182425,0.00036908,-0.00366187,-0.01385813,-0.01942498,-0
 .00809108,-0.05305201,-0.04767526,0.00158979,0.00147861,0.00156031,-0.
 00186688,0.00234089,0.00085302,-0.00015645,-0.00051303,0.00017507,0.00
 017814,0.00008355,-0.00025274,-0.00003532,0.00015103,0.00009915,0.0003
 0660,0.00008412,0.00018654,0.00007787,-0.00001185,0.00010125,0.0000170
 6,-0.00005595,0.00000874,0.00008435,-0.00005830,0.00001075,-0.00002798
 ,0.00001492,0.00000010,0.00003449,-0.00002735,-0.00002108,0.00001063,-
 0.00000550,0.00000276,0.00001363,0.00000624,0.00001138,-0.00001852,0.0
 0003508,-0.00001292,0.00002088,-0.00001552,0.00000004,-0.00007010,-0.0
 0000130,-0.00005655,0.04993132,0.20986520,0.00038343,-0.00020022,0.000
 52970,-0.00094333,0.00124896,0.00028138,0.00335340,0.00441354,-0.00893
 427,-0.00102142,-0.00232497,0.00082274,0.00129896,0.00012584,-0.000198
 72,-0.00046250,0.00029841,0.00033120,0.00001508,0.00000935,0.00001251,
 -0.00018458,0.00012488,-0.00031110,-0.00026116,0.00067722,-0.00027685,
 -0.00003178,-0.00002652,0.00001842,-0.00011701,0.00005796,-0.00009678,
 -0.00793709,0.11721613,-0.17725961,-0.00143550,0.00123128,-0.01330279,
 0.00080815,-0.00023421,0.00209775,-0.00170872,0.00011317,0.00052398,0.
 00330776,-0.00051298,0.00276761,-0.00820084,-0.00691055,-0.02040925,0.
 01070316,-0.09207056,-0.13633386,0.00267477,0.00139205,0.00193551,-0.0
 0100366,-0.00115625,0.00277453,-0.00159790,0.00070594,0.00143546,0.000
 17141,-0.00046219,-0.00063358,0.00005264,0.00014649,0.00006536,0.00065
 585,-0.00056188,-0.00085010,0.00004654,0.00007605,0.00009838,0.0000341
 9,-0.00003747,0.00000792,-0.00011597,0.00014029,-0.00005151,-0.0000122
 7,0.00001681,-0.00010135,0.00001567,-0.00002406,-0.00003466,0.00000015
 ,-0.00000966,-0.00000156,-0.00001082,0.00001447,-0.00000530,0.00000513
 ,-0.00001842,-0.00001215,0.00000128,-0.00001289,0.00000529,-0.00007405
 ,-0.00003829,-0.00006275,0.01645136,-0.04846645,0.57313619,-0.00015991
 ,-0.00006134,-0.00004841,0.00030844,0.00014040,-0.00026741,0.00065741,
 -0.00043317,0.00029436,0.00013034,-0.00005611,0.00003443,0.00001661,0.
 00005546,-0.00006755,-0.00000525,0.00006479,0.00004652,0.00000339,0.00
 000135,0.00000133,0.00003659,0.00005956,0.00010496,-0.00005179,0.00004
 641,0.00000315,-0.00000305,0.00000686,-0.00001210,0.00000760,0.0000053
 1,0.00001883,0.00077075,-0.00070184,0.00253277,-0.00007778,-0.00020923
 ,0.00035052,0.00004606,-0.00012867,-0.00005319,0.00010816,-0.00008195,
 -0.00002965,0.00056795,0.00019063,-0.00052205,-0.00093058,-0.00004516,
 0.00212301,0.00802726,0.00093480,0.00268043,0.00012289,-0.00021112,-0.
 00032931,0.00050517,0.00049946,0.00034691,0.00005270,0.00014066,0.0003
 3918,0.00011336,-0.00016287,-0.00015951,0.00000930,0.00001814,0.000008
 41,0.00018829,-0.00017941,-0.00026944,-0.00001315,0.00000461,-0.000018
 54,0.00000125,-0.00000589,-0.00000222,-0.00009580,0.00006105,-0.000018
 19,0.00000790,-0.00000370,-0.00001630,-0.00001066,0.00000845,-0.000005
 99,-0.00000710,0.00000312,-0.00000221,-0.00001103,0.00000438,-0.000009
 56,0.00001474,-0.00001033,-0.00000023,-0.00000967,0.00000662,0.0000025
 1,0.00000098,0.00000050,0.00001199,-0.24781000,-0.00636388,-0.12544994
 ,0.25177856,0.00015608,0.00008126,0.00008792,-0.00036764,0.00023201,0.
 00007121,0.00089619,0.00110485,-0.00194113,-0.00015450,-0.00012231,-0.
 00026087,-0.00009348,-0.00016923,0.00004270,0.00004598,-0.00007896,-0.
 00005681,0.00001345,-0.00000143,-0.00000102,-0.00002941,-0.00000643,-0
 .00009896,0.00010795,-0.00006982,0.00007834,0.00000405,-0.00001034,0.0
 0002832,0.00000207,-0.00000103,-0.00001774,0.02213803,0.00038546,0.008
 40449,-0.00224273,-0.00060168,0.00465946,-0.00004208,0.00009781,-0.000
 22377,0.00160238,-0.00027161,0.00061370,-0.00090624,0.00050181,0.00008
 512,0.00279751,0.00042686,-0.00415014,-0.02184029,-0.00184009,-0.01265
 574,-0.00033523,-0.00014294,0.00050329,-0.00150173,-0.00142864,-0.0019
 0783,-0.00005411,0.00034461,-0.00006065,0.00000771,-0.00002043,0.00006
 801,0.00008768,-0.00001828,-0.00005088,0.00001594,-0.00003668,0.000055
 90,-0.00002406,0.00000526,-0.00000297,-0.00000482,0.00001376,-0.000001
 32,-0.00000399,0.00000098,-0.00003040,0.00000277,0.00001067,-0.0000053
 8,-0.00000722,0.00000376,0.00000376,-0.00000169,-0.00000114,0.00000049
 ,-0.00000214,-0.00000391,-0.00000043,-0.00000114,-0.00000553,-0.000001
 78,-0.00000022,0.00000261,-0.00000158,0.00000768,-0.00002093,0.0000064
 9,-0.00315543,-0.03485301,0.00305565,0.00587963,0.03602576,0.00006855,
 0.00000159,-0.00004561,0.00027829,-0.00019521,-0.00000316,-0.00099212,
 -0.00009272,0.00138850,0.00038126,0.00038802,0.00002977,-0.00005843,0.
 00011911,0.00005040,0.00000259,-0.00001115,-0.00002183,-0.00001216,0.0
 0001092,-0.00001746,-0.00009174,-0.00002988,-0.00006266,-0.00003738,-0
 .00000913,-0.00004766,0.00001450,0.00000676,-0.00001928,-0.00000383,-0
 .00000698,0.00000165,-0.01170698,-0.00161920,-0.01033244,0.00195187,-0
 .00037114,-0.00168441,-0.00011696,0.00007658,0.00011868,-0.00059863,0.
 00019157,-0.00006184,-0.00076901,-0.00018771,0.00160261,0.00382067,0.0
 0328621,-0.00243571,-0.01342880,-0.00599669,-0.01764768,-0.00018556,-0
 .00016725,0.00064815,-0.00071510,-0.00100169,-0.00043376,0.00005921,-0
 .00000604,-0.00062068,-0.00012541,0.00008445,0.00027294,-0.00003319,-0
 .00003264,-0.00000793,-0.00024407,0.00020722,0.00020420,-0.00004196,-0
 .00000699,-0.00005551,0.00000369,0.00001950,0.00000972,0.00006569,-0.0
 0004876,0.00001512,-0.00000033,0.00000684,0.00003136,-0.00000286,-0.00
 000077,0.00000102,-0.00000251,0.00000178,0.00000027,0.00000612,-0.0000
 0270,0.00000074,-0.00000683,0.00000513,0.00001136,-0.00000550,0.000005
 26,-0.00000063,0.00001927,0.00000154,0.00000491,-0.12130746,-0.0008073
 9,-0.11976942,0.13159347,0.00544683,0.13803821,0.00005618,-0.00011013,
 -0.00001769,0.00035969,0.00013018,0.00001900,-0.00023299,-0.00033840,-
 0.00074684,-0.00002904,0.00019562,0.00013348,0.00002197,-0.00002233,0.
 00000362,0.00000633,0.00004183,-0.00000376,0.00000661,0.00001228,-0.00
 001656,0.00001270,-0.00001763,-0.00005785,-0.00000463,-0.00001951,-0.0
 0002712,-0.00000526,-0.00000436,-0.00000233,-0.00000268,-0.00000655,-0
 .00000177,0.00509366,0.00088472,-0.00234136,-0.00045099,0.00039200,-0.
 00001337,0.00000591,-0.00002847,0.00030607,0.00011090,-0.00016585,0.00
 008320,0.00090028,0.00075407,0.00045292,-0.00014340,-0.00304045,-0.001
 08164,0.00020674,0.00253873,0.00277439,-0.00015181,0.00016878,-0.00089
 117,0.00007500,0.00019532,-0.00003395,-0.00158224,0.00003141,-0.000956
 20,-0.00015975,-0.00011150,-0.00000575,0.00008418,-0.00005115,0.000103
 57,-0.00065613,0.00037854,-0.00014911,0.00003617,0.00000355,0.00006153
 ,0.00001620,-0.00000761,-0.00000773,0.00005984,-0.00002373,-0.00002172
 ,-0.00000420,0.00002687,-0.00000351,0.00001308,-0.00001241,-0.00000286
 ,0.00000472,-0.00000808,0.00000248,0.00000822,-0.00000225,0.00000656,-
 0.00001251,0.00000383,-0.00000738,0.00001483,-0.00001014,-0.00000077,-
 0.00003475,-0.00001148,-0.00002270,-0.24748040,-0.03492171,0.11058962,
 -0.01428995,-0.00299694,0.01222166,0.25814752,-0.00034264,0.00031894,-
 0.00019602,-0.00035281,-0.00106888,0.00008330,0.00077193,0.00118699,0.
 00379182,-0.00006800,0.00031766,0.00020216,-0.00016036,0.00003424,-0.0
 0005496,-0.00004123,-0.00011499,0.00002096,-0.00009310,-0.00004748,0.0
 0003807,-0.00006973,-0.00002424,0.00034134,0.00012216,-0.00014491,0.00
 003137,-0.00003175,-0.00004094,-0.00000432,0.00002967,-0.00001674,0.00
 004881,-0.02191906,-0.00383148,0.00764196,-0.00016789,0.00027392,-0.00
 203745,0.00036110,-0.00033147,0.00001706,-0.00037551,-0.00010396,-0.00
 035254,-0.00009568,-0.00015906,0.00024917,0.00174769,0.00389043,-0.001
 33866,0.02194927,0.00090255,-0.01558851,-0.00021359,-0.00072597,0.0012
 4694,0.00018246,-0.00035590,0.00085743,-0.00004481,0.00062995,0.000631
 99,-0.00011412,-0.00018886,-0.00004633,-0.00019514,-0.00011042,-0.0002
 0521,0.00048864,0.00007478,-0.00043712,-0.00002192,0.00000665,0.000026
 14,0.00001227,-0.00000754,-0.00001066,-0.00006067,0.00004873,0.0000152
 7,0.00000994,0.00000457,-0.00002350,-0.00000942,0.00000575,-0.00000765
 ,-0.00000877,0.00000386,-0.00000595,-0.00001173,0.00000303,-0.00001290
 ,0.00004621,-0.00000650,-0.00002983,-0.00000561,0.00000679,0.00000425,
 0.00000700,0.00000066,0.00000253,-0.03800021,-0.04022990,0.02200307,0.
 00052249,0.00046695,0.00073470,0.03615293,0.03933280,0.00013292,-0.000
 01415,0.00017403,0.00063604,0.00039010,-0.00040834,-0.00053477,-0.0013
 2829,-0.00094374,0.00008697,-0.00008414,-0.00001609,0.00007628,0.00007
 662,-0.00001093,0.00002634,0.00005888,-0.00000647,0.00004259,0.0000206
 8,-0.00002304,-0.00021330,0.00018134,0.00002180,-0.00004692,0.00006265
 ,0.00001869,0.00001226,0.00002469,-0.00000277,-0.00001133,0.00003803,-
 0.00002206,0.01207648,-0.00225998,-0.01001451,0.00077371,0.00116096,0.
 00065385,-0.00054324,0.00020666,-0.00012237,0.00016849,-0.00005888,0.0
 0024752,0.00000812,0.00023770,0.00099280,0.00492805,-0.00110217,-0.002
 16741,0.01169518,0.00440730,-0.01653687,-0.00105599,-0.00019020,0.0010
 7205,-0.00050837,0.00011667,0.00044343,-0.00073870,-0.00008922,-0.0003
 7564,-0.00012050,0.00024399,0.00018820,-0.00001781,-0.00004132,0.00002
 300,-0.00044258,0.00025090,0.00054849,0.00003868,-0.00001317,0.0000623
 9,0.00000478,0.00000368,-0.00000483,0.00016819,-0.00010740,0.00005108,
 -0.00000984,0.00000177,0.00001271,0.00002347,-0.00001882,0.00000825,0.
 00001197,-0.00000817,0.00000319,0.00002021,-0.00000280,0.00001773,-0.0
 0002295,0.00000583,-0.00000271,0.00001785,-0.00001404,-0.00000342,-0.0
 0002256,-0.00000502,-0.00004297,0.10689624,0.01722828,-0.10819835,-0.0
 1321100,-0.00174228,0.01083809,-0.12034495,-0.01763671,0.12352522\\0.0
 0000015,-0.00000187,0.00000095,-0.00000163,0.00000061,-0.00000024,0.00
 000105,-0.00000573,0.00000793,0.00000234,0.00000098,-0.00000220,-0.000
 00044,0.00000122,-0.00000034,-0.00000162,0.00000268,0.00000038,0.00000
 053,0.00000107,-0.00000003,0.00000210,0.00000091,0.00000030,-0.0000009
 8,0.00000033,0.00000028,-0.00000036,0.00000082,-0.00000029,0.00000008,
 0.00000054,-0.00000044,-0.00001636,0.00002630,-0.00001368,-0.00001126,
 -0.00001431,0.00000193,0.00000474,0.00000204,-0.00000207,0.00000161,0.
 00000252,-0.00000159,-0.00000924,0.00000196,0.00001232,-0.00001428,0.0
 0000271,0.00000143,0.00002062,0.00000311,0.00001978,-0.00000426,-0.000
 00330,0.00000293,0.00000192,0.00000337,0.00000073,0.00003455,-0.000004
 91,-0.00002034,-0.00001215,0.00000060,-0.00000655,-0.00000550,-0.00000
 065,0.00000229,-0.00000082,-0.00000023,0.00000441,-0.00000350,0.000002
 88,-0.00000012,0.00000501,-0.00000253,0.00000375,0.00000485,0.00000092
 ,0.00000774,-0.00000316,0.00000123,-0.00000054,0.00000060,-0.00000418,
 -0.00000576,-0.00000030,-0.00000078,-0.00000061,0.00000058,-0.00000127
 ,-0.00000095,-0.00000023,-0.00000058,-0.00000003,-0.00000140,-0.000000
 68,-0.00000097,-0.00000081,-0.00000272,-0.00000097,0.00001348,-0.00001
 248,-0.00002163,-0.00000291,0.00000113,0.00000776,-0.00000298,-0.00000
 173,0.00000446\\\@


 WE STILL HAVE JUDGEMENT HERE,
 THAT WE TEACH BUT BLOODY INSTRUCTIONS,
 WHICH, BEING TAUGHT,
 RETURN TO PLAGUE THE INVENTOR.
           MACBETH ACT I, SCENE VII
 Job cpu time:       0 days  2 hours 48 minutes 40.8 seconds.
 Elapsed time:       0 days  0 hours  6 minutes  9.8 seconds.
 File lengths (MBytes):  RWF=    826 Int=      0 D2E=      0 Chk=     18 Scr=      2
 Normal termination of Gaussian 16 at Sun Jun 13 18:18:25 2021.
