 Entering Gaussian System, Link 0=g09
 Input=0_catalyst.com
 Output=0_catalyst.log
 Initial command:
 /usr/public/gaussian/g09.D01/l1.exe "/gsfs1/data1/xuhq/Gau-4131.inp" -scrdir="/gsfs1/data1/xuhq/"
 Entering Link 1 = /usr/public/gaussian/g09.D01/l1.exe PID=      4132.
  
 Copyright (c) 1988,1990,1992,1993,1995,1998,2003,2009,2013,
            Gaussian, Inc.  All Rights Reserved.
  
 This is part of the Gaussian(R) 09 program.  It is based on
 the Gaussian(R) 03 system (copyright 2003, Gaussian, Inc.),
 the Gaussian(R) 98 system (copyright 1998, Gaussian, Inc.),
 the Gaussian(R) 94 system (copyright 1995, Gaussian, Inc.),
 the Gaussian 92(TM) system (copyright 1992, Gaussian, Inc.),
 the Gaussian 90(TM) system (copyright 1990, Gaussian, Inc.),
 the Gaussian 88(TM) system (copyright 1988, Gaussian, Inc.),
 the Gaussian 86(TM) system (copyright 1986, Carnegie Mellon
 University), and the Gaussian 82(TM) system (copyright 1983,
 Carnegie Mellon University). Gaussian is a federally registered
 trademark of Gaussian, Inc.
  
 This software contains proprietary and confidential information,
 including trade secrets, belonging to Gaussian, Inc.
  
 This software is provided under written license and may be
 used, copied, transmitted, or stored only in accord with that
 written license.
  
 The following legend is applicable only to US Government
 contracts under FAR:
  
                    RESTRICTED RIGHTS LEGEND
  
 Use, reproduction and disclosure by the US Government is
 subject to restrictions as set forth in subparagraphs (a)
 and (c) of the Commercial Computer Software - Restricted
 Rights clause in FAR 52.227-19.
  
 Gaussian, Inc.
 340 Quinnipiac St., Bldg. 40, Wallingford CT 06492
  
  
 ---------------------------------------------------------------
 Warning -- This program may not be used in any manner that
 competes with the business of Gaussian, Inc. or will provide
 assistance to any competitor of Gaussian, Inc.  The licensee
 of this program is prohibited from giving any competitor of
 Gaussian, Inc. access to this program.  By using this program,
 the user acknowledges that Gaussian, Inc. is engaged in the
 business of creating and licensing software in the field of
 computational chemistry and represents and warrants to the
 licensee that it is not a competitor of Gaussian, Inc. and that
 it will not use this program in any manner prohibited above.
 ---------------------------------------------------------------
  

 Cite this work as:
 Gaussian 09, Revision D.01,
 M. J. Frisch, G. W. Trucks, H. B. Schlegel, G. E. Scuseria, 
 M. A. Robb, J. R. Cheeseman, G. Scalmani, V. Barone, B. Mennucci, 
 G. A. Petersson, H. Nakatsuji, M. Caricato, X. Li, H. P. Hratchian, 
 A. F. Izmaylov, J. Bloino, G. Zheng, J. L. Sonnenberg, M. Hada, 
 M. Ehara, K. Toyota, R. Fukuda, J. Hasegawa, M. Ishida, T. Nakajima, 
 Y. Honda, O. Kitao, H. Nakai, T. Vreven, J. A. Montgomery, Jr., 
 J. E. Peralta, F. Ogliaro, M. Bearpark, J. J. Heyd, E. Brothers, 
 K. N. Kudin, V. N. Staroverov, T. Keith, R. Kobayashi, J. Normand, 
 K. Raghavachari, A. Rendell, J. C. Burant, S. S. Iyengar, J. Tomasi, 
 M. Cossi, N. Rega, J. M. Millam, M. Klene, J. E. Knox, J. B. Cross, 
 V. Bakken, C. Adamo, J. Jaramillo, R. Gomperts, R. E. Stratmann, 
 O. Yazyev, A. J. Austin, R. Cammi, C. Pomelli, J. W. Ochterski, 
 R. L. Martin, K. Morokuma, V. G. Zakrzewski, G. A. Voth, 
 P. Salvador, J. J. Dannenberg, S. Dapprich, A. D. Daniels, 
 O. Farkas, J. B. Foresman, J. V. Ortiz, J. Cioslowski, 
 and D. J. Fox, Gaussian, Inc., Wallingford CT, 2013.
 
 ******************************************
 Gaussian 09:  ES64L-G09RevD.01 24-Apr-2013
                 5-Jul-2020 
 ******************************************
 %mem=32gb
 %nprocshared=16
 Will use up to   16 processors via shared memory.
 %chk=0_catalyst_PBE0.chk
 ---------------------
 #p b3lyp/gen opt freq
 ---------------------
 1/14=-1,18=20,19=15,26=3,38=1/1,3;
 2/9=110,12=2,17=6,18=5,40=1/2;
 3/5=7,11=2,16=1,25=1,30=1,71=1,74=-5/1,2,3;
 4//1;
 5/5=2,38=5/2;
 6/7=2,8=2,9=2,10=2,28=1/1;
 7//1,2,3,16;
 1/14=-1,18=20,19=15,26=3/3(2);
 2/9=110/2;
 99//99;
 2/9=110/2;
 3/5=7,6=1,11=2,16=1,25=1,30=1,71=1,74=-5,82=7/1,2,3;
 4/5=5,16=3,69=1/1;
 5/5=2,38=5/2;
 7//1,2,3,16;
 1/14=-1,18=20,19=15,26=3/3(-5);
 2/9=110/2;
 6/7=2,8=2,9=2,10=2,19=2,28=1/1;
 99/9=1/99;
 Leave Link    1 at Sun Jul  5 15:56:25 2020, MaxMem=  4294967296 cpu:         1.4
 (Enter /usr/public/gaussian/g09.D01/l101.exe)
 -------
 comment
 -------
 Symbolic Z-matrix:
 Charge =  0 Multiplicity = 2
 C                     1.193    -2.793     0.001 
 N                     1.385    -1.418     0. 
 H                     2.563    -4.576     0.001 
 C                     2.764    -1.258    -0.001 
 C                     3.433    -2.537    -0.001 
 H                     4.515    -2.669    -0.002 
 C                     2.456    -3.491     0.001 
 C                     3.429    -0.04     -0.002 
 N                     1.418     1.385     0. 
 C                     1.258     2.764     0.001 
 C                     2.537     3.433     0.001 
 H                     2.669     4.515     0.002 
 C                     3.491     2.456    -0.001 
 H                     4.576     2.563    -0.001 
 C                     2.793     1.193    -0.001 
 C                    -0.04     -3.429     0.002 
 H                    -4.576    -2.563    -0.002 
 C                    -3.491    -2.456    -0.001 
 C                    -2.793    -1.193    -0.001 
 H                    -2.669    -4.515     0.002 
 N                    -1.418    -1.385     0. 
 C                    -1.258    -2.764     0.001 
 C                    -2.537    -3.433     0.001 
 C                     0.04      3.429     0.002 
 H                    -4.515     2.669    -0.002 
 C                    -3.433     2.537    -0.001 
 C                    -2.456     3.491     0.001 
 H                    -2.563     4.576     0.002 
 C                    -1.193     2.793     0.001 
 N                    -1.385     1.418     0. 
 C                    -2.764     1.258    -0.001 
 C                    -3.429     0.04     -0.002 
 Co                    0.        0.        0. 
 H                    -0.053    -4.522     0.003 
 H                    -4.522     0.053    -0.003 
 H                     0.053     4.522     0.003 
 H                     4.522    -0.053    -0.003 
 
 NAtoms=     37 NQM=       37 NQMF=       0 NMMI=      0 NMMIF=      0
                NMic=       0 NMicF=      0.
                    Isotopes and Nuclear Properties:
 (Nuclear quadrupole moments (NQMom) in fm**2, nuclear magnetic moments (NMagM)
  in nuclear magnetons)

  Atom         1           2           3           4           5           6           7           8           9          10
 IAtWgt=          12          14           1          12          12           1          12          12          14          12
 AtmWgt=  12.0000000  14.0030740   1.0078250  12.0000000  12.0000000   1.0078250  12.0000000  12.0000000  14.0030740  12.0000000
 NucSpn=           0           2           1           0           0           1           0           0           2           0
 AtZEff=   0.0000000   0.0000000   0.0000000   0.0000000   0.0000000   0.0000000   0.0000000   0.0000000   0.0000000   0.0000000
 NQMom=    0.0000000   2.0440000   0.0000000   0.0000000   0.0000000   0.0000000   0.0000000   0.0000000   2.0440000   0.0000000
 NMagM=    0.0000000   0.4037610   2.7928460   0.0000000   0.0000000   2.7928460   0.0000000   0.0000000   0.4037610   0.0000000
 AtZNuc=   6.0000000   7.0000000   1.0000000   6.0000000   6.0000000   1.0000000   6.0000000   6.0000000   7.0000000   6.0000000

  Atom        11          12          13          14          15          16          17          18          19          20
 IAtWgt=          12           1          12           1          12          12           1          12          12           1
 AtmWgt=  12.0000000   1.0078250  12.0000000   1.0078250  12.0000000  12.0000000   1.0078250  12.0000000  12.0000000   1.0078250
 NucSpn=           0           1           0           1           0           0           1           0           0           1
 AtZEff=   0.0000000   0.0000000   0.0000000   0.0000000   0.0000000   0.0000000   0.0000000   0.0000000   0.0000000   0.0000000
 NQMom=    0.0000000   0.0000000   0.0000000   0.0000000   0.0000000   0.0000000   0.0000000   0.0000000   0.0000000   0.0000000
 NMagM=    0.0000000   2.7928460   0.0000000   2.7928460   0.0000000   0.0000000   2.7928460   0.0000000   0.0000000   2.7928460
 AtZNuc=   6.0000000   1.0000000   6.0000000   1.0000000   6.0000000   6.0000000   1.0000000   6.0000000   6.0000000   1.0000000

  Atom        21          22          23          24          25          26          27          28          29          30
 IAtWgt=          14          12          12          12           1          12          12           1          12          14
 AtmWgt=  14.0030740  12.0000000  12.0000000  12.0000000   1.0078250  12.0000000  12.0000000   1.0078250  12.0000000  14.0030740
 NucSpn=           2           0           0           0           1           0           0           1           0           2
 AtZEff=   0.0000000   0.0000000   0.0000000   0.0000000   0.0000000   0.0000000   0.0000000   0.0000000   0.0000000   0.0000000
 NQMom=    2.0440000   0.0000000   0.0000000   0.0000000   0.0000000   0.0000000   0.0000000   0.0000000   0.0000000   2.0440000
 NMagM=    0.4037610   0.0000000   0.0000000   0.0000000   2.7928460   0.0000000   0.0000000   2.7928460   0.0000000   0.4037610
 AtZNuc=   7.0000000   6.0000000   6.0000000   6.0000000   1.0000000   6.0000000   6.0000000   1.0000000   6.0000000   7.0000000

  Atom        31          32          33          34          35          36          37
 IAtWgt=          12          12          59           1           1           1           1
 AtmWgt=  12.0000000  12.0000000  58.9331978   1.0078250   1.0078250   1.0078250   1.0078250
 NucSpn=           0           0           7           1           1           1           1
 AtZEff=   0.0000000   0.0000000   0.0000000   0.0000000   0.0000000   0.0000000   0.0000000
 NQMom=    0.0000000   0.0000000  42.0000000   0.0000000   0.0000000   0.0000000   0.0000000
 NMagM=    0.0000000   0.0000000   4.6270000   2.7928460   2.7928460   2.7928460   2.7928460
 AtZNuc=   6.0000000   6.0000000  27.0000000   1.0000000   1.0000000   1.0000000   1.0000000
 Leave Link  101 at Sun Jul  5 15:56:26 2020, MaxMem=  4294967296 cpu:         6.1
 (Enter /usr/public/gaussian/g09.D01/l103.exe)

 GradGradGradGradGradGradGradGradGradGradGradGradGradGradGradGradGradGrad
 Berny optimization.
 Initialization pass.
                           ----------------------------
                           !    Initial Parameters    !
                           ! (Angstroms and Degrees)  !
 --------------------------                            --------------------------
 ! Name  Definition              Value          Derivative Info.                !
 --------------------------------------------------------------------------------
 ! R1    R(1,2)                  1.3883         estimate D2E/DX2                !
 ! R2    R(1,7)                  1.443          estimate D2E/DX2                !
 ! R3    R(1,16)                 1.3874         estimate D2E/DX2                !
 ! R4    R(2,4)                  1.3883         estimate D2E/DX2                !
 ! R5    R(2,33)                 1.9822         estimate D2E/DX2                !
 ! R6    R(3,7)                  1.0903         estimate D2E/DX2                !
 ! R7    R(4,5)                  1.4434         estimate D2E/DX2                !
 ! R8    R(4,8)                  1.3877         estimate D2E/DX2                !
 ! R9    R(5,6)                  1.09           estimate D2E/DX2                !
 ! R10   R(5,7)                  1.3655         estimate D2E/DX2                !
 ! R11   R(8,15)                 1.3874         estimate D2E/DX2                !
 ! R12   R(8,37)                 1.0931         estimate D2E/DX2                !
 ! R13   R(9,10)                 1.3883         estimate D2E/DX2                !
 ! R14   R(9,15)                 1.3883         estimate D2E/DX2                !
 ! R15   R(9,33)                 1.9822         estimate D2E/DX2                !
 ! R16   R(10,11)                1.4434         estimate D2E/DX2                !
 ! R17   R(10,24)                1.3877         estimate D2E/DX2                !
 ! R18   R(11,12)                1.09           estimate D2E/DX2                !
 ! R19   R(11,13)                1.3655         estimate D2E/DX2                !
 ! R20   R(13,14)                1.0903         estimate D2E/DX2                !
 ! R21   R(13,15)                1.443          estimate D2E/DX2                !
 ! R22   R(16,22)                1.3877         estimate D2E/DX2                !
 ! R23   R(16,34)                1.0931         estimate D2E/DX2                !
 ! R24   R(17,18)                1.0903         estimate D2E/DX2                !
 ! R25   R(18,19)                1.443          estimate D2E/DX2                !
 ! R26   R(18,23)                1.3655         estimate D2E/DX2                !
 ! R27   R(19,21)                1.3883         estimate D2E/DX2                !
 ! R28   R(19,32)                1.3874         estimate D2E/DX2                !
 ! R29   R(20,23)                1.09           estimate D2E/DX2                !
 ! R30   R(21,22)                1.3883         estimate D2E/DX2                !
 ! R31   R(21,33)                1.9822         estimate D2E/DX2                !
 ! R32   R(22,23)                1.4434         estimate D2E/DX2                !
 ! R33   R(24,29)                1.3874         estimate D2E/DX2                !
 ! R34   R(24,36)                1.0931         estimate D2E/DX2                !
 ! R35   R(25,26)                1.09           estimate D2E/DX2                !
 ! R36   R(26,27)                1.3655         estimate D2E/DX2                !
 ! R37   R(26,31)                1.4434         estimate D2E/DX2                !
 ! R38   R(27,28)                1.0903         estimate D2E/DX2                !
 ! R39   R(27,29)                1.443          estimate D2E/DX2                !
 ! R40   R(29,30)                1.3883         estimate D2E/DX2                !
 ! R41   R(30,31)                1.3883         estimate D2E/DX2                !
 ! R42   R(30,33)                1.9822         estimate D2E/DX2                !
 ! R43   R(31,32)                1.3877         estimate D2E/DX2                !
 ! R44   R(32,35)                1.0931         estimate D2E/DX2                !
 ! A1    A(2,1,7)              110.9782         estimate D2E/DX2                !
 ! A2    A(2,1,16)             125.2346         estimate D2E/DX2                !
 ! A3    A(7,1,16)             123.7873         estimate D2E/DX2                !
 ! A4    A(1,2,4)              104.5674         estimate D2E/DX2                !
 ! A5    A(1,2,33)             127.7253         estimate D2E/DX2                !
 ! A6    A(4,2,33)             127.7073         estimate D2E/DX2                !
 ! A7    A(2,4,5)              110.9943         estimate D2E/DX2                !
 ! A8    A(2,4,8)              125.2518         estimate D2E/DX2                !
 ! A9    A(5,4,8)              123.754          estimate D2E/DX2                !
 ! A10   A(4,5,6)              124.568          estimate D2E/DX2                !
 ! A11   A(4,5,7)              106.7051         estimate D2E/DX2                !
 ! A12   A(6,5,7)              128.7269         estimate D2E/DX2                !
 ! A13   A(1,7,3)              124.5595         estimate D2E/DX2                !
 ! A14   A(1,7,5)              106.7551         estimate D2E/DX2                !
 ! A15   A(3,7,5)              128.6854         estimate D2E/DX2                !
 ! A16   A(4,8,15)             124.0811         estimate D2E/DX2                !
 ! A17   A(4,8,37)             117.9521         estimate D2E/DX2                !
 ! A18   A(15,8,37)            117.9668         estimate D2E/DX2                !
 ! A19   A(10,9,15)            104.5674         estimate D2E/DX2                !
 ! A20   A(10,9,33)            127.7073         estimate D2E/DX2                !
 ! A21   A(15,9,33)            127.7253         estimate D2E/DX2                !
 ! A22   A(9,10,11)            110.9943         estimate D2E/DX2                !
 ! A23   A(9,10,24)            125.2518         estimate D2E/DX2                !
 ! A24   A(11,10,24)           123.754          estimate D2E/DX2                !
 ! A25   A(10,11,12)           124.568          estimate D2E/DX2                !
 ! A26   A(10,11,13)           106.7051         estimate D2E/DX2                !
 ! A27   A(12,11,13)           128.7269         estimate D2E/DX2                !
 ! A28   A(11,13,14)           128.6854         estimate D2E/DX2                !
 ! A29   A(11,13,15)           106.7551         estimate D2E/DX2                !
 ! A30   A(14,13,15)           124.5595         estimate D2E/DX2                !
 ! A31   A(8,15,9)             125.2346         estimate D2E/DX2                !
 ! A32   A(8,15,13)            123.7873         estimate D2E/DX2                !
 ! A33   A(9,15,13)            110.9782         estimate D2E/DX2                !
 ! A34   A(1,16,22)            124.0811         estimate D2E/DX2                !
 ! A35   A(1,16,34)            117.9668         estimate D2E/DX2                !
 ! A36   A(22,16,34)           117.9521         estimate D2E/DX2                !
 ! A37   A(17,18,19)           124.5595         estimate D2E/DX2                !
 ! A38   A(17,18,23)           128.6855         estimate D2E/DX2                !
 ! A39   A(19,18,23)           106.7551         estimate D2E/DX2                !
 ! A40   A(18,19,21)           110.9782         estimate D2E/DX2                !
 ! A41   A(18,19,32)           123.7873         estimate D2E/DX2                !
 ! A42   A(21,19,32)           125.2346         estimate D2E/DX2                !
 ! A43   A(19,21,22)           104.5674         estimate D2E/DX2                !
 ! A44   A(19,21,33)           127.7253         estimate D2E/DX2                !
 ! A45   A(22,21,33)           127.7073         estimate D2E/DX2                !
 ! A46   A(16,22,21)           125.2518         estimate D2E/DX2                !
 ! A47   A(16,22,23)           123.754          estimate D2E/DX2                !
 ! A48   A(21,22,23)           110.9943         estimate D2E/DX2                !
 ! A49   A(18,23,20)           128.7269         estimate D2E/DX2                !
 ! A50   A(18,23,22)           106.7051         estimate D2E/DX2                !
 ! A51   A(20,23,22)           124.568          estimate D2E/DX2                !
 ! A52   A(10,24,29)           124.0811         estimate D2E/DX2                !
 ! A53   A(10,24,36)           117.9521         estimate D2E/DX2                !
 ! A54   A(29,24,36)           117.9668         estimate D2E/DX2                !
 ! A55   A(25,26,27)           128.7269         estimate D2E/DX2                !
 ! A56   A(25,26,31)           124.568          estimate D2E/DX2                !
 ! A57   A(27,26,31)           106.7051         estimate D2E/DX2                !
 ! A58   A(26,27,28)           128.6855         estimate D2E/DX2                !
 ! A59   A(26,27,29)           106.7551         estimate D2E/DX2                !
 ! A60   A(28,27,29)           124.5595         estimate D2E/DX2                !
 ! A61   A(24,29,27)           123.7873         estimate D2E/DX2                !
 ! A62   A(24,29,30)           125.2346         estimate D2E/DX2                !
 ! A63   A(27,29,30)           110.9782         estimate D2E/DX2                !
 ! A64   A(29,30,31)           104.5674         estimate D2E/DX2                !
 ! A65   A(29,30,33)           127.7253         estimate D2E/DX2                !
 ! A66   A(31,30,33)           127.7073         estimate D2E/DX2                !
 ! A67   A(26,31,30)           110.9943         estimate D2E/DX2                !
 ! A68   A(26,31,32)           123.754          estimate D2E/DX2                !
 ! A69   A(30,31,32)           125.2518         estimate D2E/DX2                !
 ! A70   A(19,32,31)           124.0811         estimate D2E/DX2                !
 ! A71   A(19,32,35)           117.9668         estimate D2E/DX2                !
 ! A72   A(31,32,35)           117.9521         estimate D2E/DX2                !
 ! A73   A(2,33,9)              90.0            estimate D2E/DX2                !
 ! A74   A(2,33,21)             90.0            estimate D2E/DX2                !
 ! A75   A(9,33,30)             90.0            estimate D2E/DX2                !
 ! A76   A(21,33,30)            90.0            estimate D2E/DX2                !
 ! A77   L(2,33,30,21,-1)      180.0            estimate D2E/DX2                !
 ! A78   L(9,33,21,30,-1)      180.0            estimate D2E/DX2                !
 ! A79   L(2,33,30,21,-2)      180.0            estimate D2E/DX2                !
 ! A80   L(9,33,21,30,-2)      180.0            estimate D2E/DX2                !
 ! D1    D(7,1,2,4)              0.0161         estimate D2E/DX2                !
 ! D2    D(7,1,2,33)          -179.9839         estimate D2E/DX2                !
 ! D3    D(16,1,2,4)          -179.9895         estimate D2E/DX2                !
 ! D4    D(16,1,2,33)            0.0105         estimate D2E/DX2                !
 ! D5    D(2,1,7,3)           -179.9558         estimate D2E/DX2                !
 ! D6    D(2,1,7,5)             -0.0434         estimate D2E/DX2                !
 ! D7    D(16,1,7,3)             0.0497         estimate D2E/DX2                !
 ! D8    D(16,1,7,5)           179.9621         estimate D2E/DX2                !
 ! D9    D(2,1,16,22)            0.0564         estimate D2E/DX2                !
 ! D10   D(2,1,16,34)         -179.9839         estimate D2E/DX2                !
 ! D11   D(7,1,16,22)         -179.9498         estimate D2E/DX2                !
 ! D12   D(7,1,16,34)            0.0098         estimate D2E/DX2                !
 ! D13   D(1,2,4,5)              0.0161         estimate D2E/DX2                !
 ! D14   D(1,2,4,8)           -179.9895         estimate D2E/DX2                !
 ! D15   D(33,2,4,5)          -179.9839         estimate D2E/DX2                !
 ! D16   D(33,2,4,8)             0.0105         estimate D2E/DX2                !
 ! D17   D(1,2,33,9)           179.9478         estimate D2E/DX2                !
 ! D18   D(1,2,33,21)           -0.0522         estimate D2E/DX2                !
 ! D19   D(4,2,33,9)            -0.0522         estimate D2E/DX2                !
 ! D20   D(4,2,33,21)          179.9478         estimate D2E/DX2                !
 ! D21   D(2,4,5,6)            179.9804         estimate D2E/DX2                !
 ! D22   D(2,4,5,7)             -0.0434         estimate D2E/DX2                !
 ! D23   D(8,4,5,6)             -0.0142         estimate D2E/DX2                !
 ! D24   D(8,4,5,7)            179.962          estimate D2E/DX2                !
 ! D25   D(2,4,8,15)             0.0564         estimate D2E/DX2                !
 ! D26   D(2,4,8,37)          -179.9839         estimate D2E/DX2                !
 ! D27   D(5,4,8,15)          -179.9498         estimate D2E/DX2                !
 ! D28   D(5,4,8,37)             0.0098         estimate D2E/DX2                !
 ! D29   D(4,5,7,1)              0.0504         estimate D2E/DX2                !
 ! D30   D(4,5,7,3)            179.958          estimate D2E/DX2                !
 ! D31   D(6,5,7,1)           -179.9747         estimate D2E/DX2                !
 ! D32   D(6,5,7,3)             -0.0671         estimate D2E/DX2                !
 ! D33   D(4,8,15,9)            -0.0564         estimate D2E/DX2                !
 ! D34   D(4,8,15,13)          179.9498         estimate D2E/DX2                !
 ! D35   D(37,8,15,9)          179.9839         estimate D2E/DX2                !
 ! D36   D(37,8,15,13)          -0.0098         estimate D2E/DX2                !
 ! D37   D(15,9,10,11)          -0.0161         estimate D2E/DX2                !
 ! D38   D(15,9,10,24)         179.9895         estimate D2E/DX2                !
 ! D39   D(33,9,10,11)         179.9839         estimate D2E/DX2                !
 ! D40   D(33,9,10,24)          -0.0105         estimate D2E/DX2                !
 ! D41   D(10,9,15,8)          179.9895         estimate D2E/DX2                !
 ! D42   D(10,9,15,13)          -0.0161         estimate D2E/DX2                !
 ! D43   D(33,9,15,8)           -0.0105         estimate D2E/DX2                !
 ! D44   D(33,9,15,13)         179.9839         estimate D2E/DX2                !
 ! D45   D(10,9,33,2)         -179.9478         estimate D2E/DX2                !
 ! D46   D(10,9,33,30)           0.0522         estimate D2E/DX2                !
 ! D47   D(15,9,33,2)            0.0522         estimate D2E/DX2                !
 ! D48   D(15,9,33,30)        -179.9478         estimate D2E/DX2                !
 ! D49   D(9,10,11,12)        -179.9804         estimate D2E/DX2                !
 ! D50   D(9,10,11,13)           0.0434         estimate D2E/DX2                !
 ! D51   D(24,10,11,12)          0.0142         estimate D2E/DX2                !
 ! D52   D(24,10,11,13)       -179.962          estimate D2E/DX2                !
 ! D53   D(9,10,24,29)          -0.0564         estimate D2E/DX2                !
 ! D54   D(9,10,24,36)         179.9839         estimate D2E/DX2                !
 ! D55   D(11,10,24,29)        179.9498         estimate D2E/DX2                !
 ! D56   D(11,10,24,36)         -0.0098         estimate D2E/DX2                !
 ! D57   D(10,11,13,14)       -179.958          estimate D2E/DX2                !
 ! D58   D(10,11,13,15)         -0.0504         estimate D2E/DX2                !
 ! D59   D(12,11,13,14)          0.0671         estimate D2E/DX2                !
 ! D60   D(12,11,13,15)        179.9747         estimate D2E/DX2                !
 ! D61   D(11,13,15,8)        -179.9621         estimate D2E/DX2                !
 ! D62   D(11,13,15,9)           0.0434         estimate D2E/DX2                !
 ! D63   D(14,13,15,8)          -0.0497         estimate D2E/DX2                !
 ! D64   D(14,13,15,9)         179.9558         estimate D2E/DX2                !
 ! D65   D(1,16,22,21)          -0.0564         estimate D2E/DX2                !
 ! D66   D(1,16,22,23)         179.9498         estimate D2E/DX2                !
 ! D67   D(34,16,22,21)        179.9839         estimate D2E/DX2                !
 ! D68   D(34,16,22,23)         -0.0098         estimate D2E/DX2                !
 ! D69   D(17,18,19,21)       -179.9804         estimate D2E/DX2                !
 ! D70   D(17,18,19,32)          0.0141         estimate D2E/DX2                !
 ! D71   D(23,18,19,21)          0.0434         estimate D2E/DX2                !
 ! D72   D(23,18,19,32)       -179.9621         estimate D2E/DX2                !
 ! D73   D(17,18,23,20)         -0.0002         estimate D2E/DX2                !
 ! D74   D(17,18,23,22)        179.9747         estimate D2E/DX2                !
 ! D75   D(19,18,23,20)        179.9747         estimate D2E/DX2                !
 ! D76   D(19,18,23,22)         -0.0504         estimate D2E/DX2                !
 ! D77   D(18,19,21,22)         -0.0161         estimate D2E/DX2                !
 ! D78   D(18,19,21,33)        179.9839         estimate D2E/DX2                !
 ! D79   D(32,19,21,22)        179.9895         estimate D2E/DX2                !
 ! D80   D(32,19,21,33)         -0.0105         estimate D2E/DX2                !
 ! D81   D(18,19,32,31)        179.9498         estimate D2E/DX2                !
 ! D82   D(18,19,32,35)         -0.0098         estimate D2E/DX2                !
 ! D83   D(21,19,32,31)         -0.0564         estimate D2E/DX2                !
 ! D84   D(21,19,32,35)        179.9839         estimate D2E/DX2                !
 ! D85   D(19,21,22,16)        179.9895         estimate D2E/DX2                !
 ! D86   D(19,21,22,23)         -0.0161         estimate D2E/DX2                !
 ! D87   D(33,21,22,16)         -0.0105         estimate D2E/DX2                !
 ! D88   D(33,21,22,23)        179.9839         estimate D2E/DX2                !
 ! D89   D(19,21,33,2)        -179.9478         estimate D2E/DX2                !
 ! D90   D(19,21,33,30)          0.0522         estimate D2E/DX2                !
 ! D91   D(22,21,33,2)           0.0522         estimate D2E/DX2                !
 ! D92   D(22,21,33,30)       -179.9478         estimate D2E/DX2                !
 ! D93   D(16,22,23,18)       -179.962          estimate D2E/DX2                !
 ! D94   D(16,22,23,20)          0.0142         estimate D2E/DX2                !
 ! D95   D(21,22,23,18)          0.0434         estimate D2E/DX2                !
 ! D96   D(21,22,23,20)       -179.9804         estimate D2E/DX2                !
 ! D97   D(10,24,29,27)       -179.9498         estimate D2E/DX2                !
 ! D98   D(10,24,29,30)          0.0564         estimate D2E/DX2                !
 ! D99   D(36,24,29,27)          0.0098         estimate D2E/DX2                !
 ! D100  D(36,24,29,30)       -179.9839         estimate D2E/DX2                !
 ! D101  D(25,26,27,28)          0.0002         estimate D2E/DX2                !
 ! D102  D(25,26,27,29)       -179.9747         estimate D2E/DX2                !
 ! D103  D(31,26,27,28)       -179.9747         estimate D2E/DX2                !
 ! D104  D(31,26,27,29)          0.0504         estimate D2E/DX2                !
 ! D105  D(25,26,31,30)        179.9804         estimate D2E/DX2                !
 ! D106  D(25,26,31,32)         -0.0142         estimate D2E/DX2                !
 ! D107  D(27,26,31,30)         -0.0434         estimate D2E/DX2                !
 ! D108  D(27,26,31,32)        179.962          estimate D2E/DX2                !
 ! D109  D(26,27,29,24)        179.9621         estimate D2E/DX2                !
 ! D110  D(26,27,29,30)         -0.0434         estimate D2E/DX2                !
 ! D111  D(28,27,29,24)         -0.0141         estimate D2E/DX2                !
 ! D112  D(28,27,29,30)        179.9804         estimate D2E/DX2                !
 ! D113  D(24,29,30,31)       -179.9895         estimate D2E/DX2                !
 ! D114  D(24,29,30,33)          0.0105         estimate D2E/DX2                !
 ! D115  D(27,29,30,31)          0.0161         estimate D2E/DX2                !
 ! D116  D(27,29,30,33)       -179.9839         estimate D2E/DX2                !
 ! D117  D(29,30,31,26)          0.0161         estimate D2E/DX2                !
 ! D118  D(29,30,31,32)       -179.9895         estimate D2E/DX2                !
 ! D119  D(33,30,31,26)       -179.9839         estimate D2E/DX2                !
 ! D120  D(33,30,31,32)          0.0105         estimate D2E/DX2                !
 ! D121  D(29,30,33,9)          -0.0522         estimate D2E/DX2                !
 ! D122  D(29,30,33,21)        179.9478         estimate D2E/DX2                !
 ! D123  D(31,30,33,9)         179.9478         estimate D2E/DX2                !
 ! D124  D(31,30,33,21)         -0.0522         estimate D2E/DX2                !
 ! D125  D(26,31,32,19)       -179.9498         estimate D2E/DX2                !
 ! D126  D(26,31,32,35)          0.0098         estimate D2E/DX2                !
 ! D127  D(30,31,32,19)          0.0564         estimate D2E/DX2                !
 ! D128  D(30,31,32,35)       -179.9839         estimate D2E/DX2                !
 --------------------------------------------------------------------------------
 Trust Radius=3.00D-01 FncErr=1.00D-07 GrdErr=1.00D-06
 Number of steps in this run=    222 maximum allowed number of steps=    222.
 GradGradGradGradGradGradGradGradGradGradGradGradGradGradGradGradGradGrad

 Leave Link  103 at Sun Jul  5 15:56:26 2020, MaxMem=  4294967296 cpu:         3.3
 (Enter /usr/public/gaussian/g09.D01/l202.exe)
                          Input orientation:                          
 ---------------------------------------------------------------------
 Center     Atomic      Atomic             Coordinates (Angstroms)
 Number     Number       Type             X           Y           Z
 ---------------------------------------------------------------------
      1          6           0        1.193000   -2.793000    0.001000
      2          7           0        1.385000   -1.418000    0.000000
      3          1           0        2.563000   -4.576000    0.001000
      4          6           0        2.764000   -1.258000   -0.001000
      5          6           0        3.433000   -2.537000   -0.001000
      6          1           0        4.515000   -2.669000   -0.002000
      7          6           0        2.456000   -3.491000    0.001000
      8          6           0        3.429000   -0.040000   -0.002000
      9          7           0        1.418000    1.385000    0.000000
     10          6           0        1.258000    2.764000    0.001000
     11          6           0        2.537000    3.433000    0.001000
     12          1           0        2.669000    4.515000    0.002000
     13          6           0        3.491000    2.456000   -0.001000
     14          1           0        4.576000    2.563000   -0.001000
     15          6           0        2.793000    1.193000   -0.001000
     16          6           0       -0.040000   -3.429000    0.002000
     17          1           0       -4.576000   -2.563000   -0.002000
     18          6           0       -3.491000   -2.456000   -0.001000
     19          6           0       -2.793000   -1.193000   -0.001000
     20          1           0       -2.669000   -4.515000    0.002000
     21          7           0       -1.418000   -1.385000    0.000000
     22          6           0       -1.258000   -2.764000    0.001000
     23          6           0       -2.537000   -3.433000    0.001000
     24          6           0        0.040000    3.429000    0.002000
     25          1           0       -4.515000    2.669000   -0.002000
     26          6           0       -3.433000    2.537000   -0.001000
     27          6           0       -2.456000    3.491000    0.001000
     28          1           0       -2.563000    4.576000    0.002000
     29          6           0       -1.193000    2.793000    0.001000
     30          7           0       -1.385000    1.418000    0.000000
     31          6           0       -2.764000    1.258000   -0.001000
     32          6           0       -3.429000    0.040000   -0.002000
     33         27           0        0.000000    0.000000    0.000000
     34          1           0       -0.053000   -4.522000    0.003000
     35          1           0       -4.522000    0.053000   -0.003000
     36          1           0        0.053000    4.522000    0.003000
     37          1           0        4.522000   -0.053000   -0.003000
 ---------------------------------------------------------------------
                    Distance matrix (angstroms):
                    1          2          3          4          5
     1  C    0.000000
     2  N    1.388341   0.000000
     3  H    2.248553   3.370556   0.000000
     4  C    2.196422   1.388251   3.324083   0.000000
     5  C    2.254582   2.333766   2.216850   1.443399   0.000000
     6  H    3.324315   3.370742   2.728912   2.248760   1.090022
     7  C    1.443043   2.333318   1.090263   2.254142   1.365522
     8  C    3.546648   2.465121   4.617928   1.387714   2.497003
     9  N    4.184054   2.803194   6.069971   2.966002   4.409343
    10  C    5.557380   4.183928   7.455107   4.294709   5.729854
    11  C    6.369412   4.985911   8.009042   4.696490   6.036863
    12  H    7.455564   6.070350   9.091618   5.773782   7.093265
    13  C    5.729992   4.409435   7.092969   3.784485   4.993337
    14  H    6.334937   5.102043   7.417378   4.228875   5.226514
    15  C    4.295137   2.966443   5.773583   2.451172   3.784508
    16  C    1.387367   2.464701   2.844507   3.546219   3.585722
    17  H    5.773584   6.069971   7.417378   7.455107   8.009042
    18  C    4.696108   4.985260   6.414462   6.368691   6.924474
    19  C    4.295137   4.184054   6.334937   5.557380   6.369412
    20  H    4.228514   5.101601   5.232356   6.334473   6.414585
    21  N    2.966443   2.803194   5.102043   4.183928   4.985911
    22  C    2.451172   2.966002   4.228875   4.294709   4.696490
    23  C    3.784508   4.409343   5.226514   5.729854   6.036863
    24  C    6.327930   5.030153   8.393185   5.421084   6.863353
    25  H    7.900299   7.177296  10.128579   8.270742   9.501218
    26  C    7.057534   6.233390   9.303053   7.266693   8.537414
    27  C    7.266626   6.233102   9.500887   7.057011   8.427165
    28  H    8.271016   7.177377  10.489756   7.900158   9.303053
    29  C    6.074240   4.937470   8.271015   5.662902   7.057534
    30  N    4.937470   3.964315   7.177377   4.937122   6.233390
    31  C    5.662902   4.937122   7.900158   6.073635   7.266693
    32  C    5.421142   5.029947   7.563830   6.327563   7.329937
    33  Co   3.037120   1.982158   5.244878   3.036818   4.268707
    34  H    2.131188   3.420916   2.616558   4.311520   4.011538
    35  H    6.384431   6.087405   8.463148   7.403008   8.366010
    36  H    7.403299   6.087515   9.437887   6.384194   7.826487
    37  H    4.311596   3.421111   4.929019   2.131336   2.712228
                    6          7          8          9         10
     6  H    0.000000
     7  C    2.217019   0.000000
     8  C    2.844475   3.585546   0.000000
     9  N    5.101601   4.985260   2.464701   0.000000
    10  C    6.334473   6.368691   3.546219   1.388251   0.000000
    11  C    6.414585   6.924474   3.585722   2.333766   1.443399
    12  H    7.417384   8.008833   4.617969   3.370742   2.248760
    13  C    5.226299   6.036393   2.496770   2.333318   2.254142
    14  H    5.232356   6.414462   2.844507   3.370556   3.324083
    15  C    4.228514   4.696108   1.387367   1.388341   2.196422
    16  C    4.617969   2.496770   4.849670   5.029947   6.327563
    17  H    9.091618   7.092970   8.393185   7.177377   7.900158
    18  C    8.008833   6.036393   7.329629   6.233102   7.057011
    19  C    7.455564   5.729992   6.327930   4.937470   5.662902
    20  H    7.417384   5.226299   7.563812   7.177296   8.270742
    21  N    6.070350   4.409435   5.030153   3.964315   4.937122
    22  C    5.773782   3.784485   5.421084   4.937122   6.073635
    23  C    7.093265   4.993337   6.863353   6.233390   7.266693
    24  C    7.563812   7.329629   4.849670   2.465121   1.387714
    25  H   10.489764   9.302712   8.393201   6.070350   5.773782
    26  C    9.501218   8.427165   7.329937   4.985911   4.696490
    27  C    9.302712   8.536748   6.863031   4.409435   3.784485
    28  H   10.128580   9.500887   7.563831   5.102043   4.228875
    29  C    7.900299   7.266626   5.421142   2.966443   2.451172
    30  N    7.177296   6.233102   5.029947   2.803194   2.966002
    31  C    8.270742   7.057011   6.327563   4.183928   4.294709
    32  C    8.393201   6.863031   6.858467   5.030153   5.421084
    33  Co   5.244882   4.268374   3.429234   1.982158   3.036818
    34  H    4.929529   2.712572   5.675621   6.087405   7.403008
    35  H    9.438043   7.826394   7.951544   6.087515   6.384194
    36  H    8.462857   8.365559   5.675319   3.421111   2.131336
    37  H    2.616010   4.011012   1.093078   3.420916   4.311520
                   11         12         13         14         15
    11  C    0.000000
    12  H    1.090022   0.000000
    13  C    1.365522   2.217019   0.000000
    14  H    2.216850   2.728912   1.090263   0.000000
    15  C    2.254582   3.324315   1.443043   2.248553   0.000000
    16  C    7.329937   8.393201   6.863031   7.563830   5.421142
    17  H    9.303053  10.128580   9.500887  10.489756   8.271016
    18  C    8.427165   9.302712   8.536748   9.500887   7.266626
    19  C    7.057534   7.900299   7.266626   8.271015   6.074240
    20  H    9.501218  10.489764   9.302712  10.128579   7.900299
    21  N    6.233390   7.177296   6.233102   7.177377   4.937470
    22  C    7.266693   8.270742   7.057011   7.900158   5.662902
    23  C    8.537414   9.501218   8.427165   9.303053   7.057534
    24  C    2.497003   2.844475   3.585546   4.617928   3.546648
    25  H    7.093265   7.417384   8.008833   9.091618   7.455564
    26  C    6.036863   6.414585   6.924474   8.009042   6.369412
    27  C    4.993337   5.226299   6.036393   7.092969   5.729992
    28  H    5.226514   5.232356   6.414462   7.417378   6.334938
    29  C    3.784508   4.228514   4.696108   5.773583   4.295137
    30  N    4.409343   5.101601   4.985260   6.069971   4.184054
    31  C    5.729854   6.334473   6.368691   7.455107   5.557380
    32  C    6.863353   7.563812   7.329629   8.393185   6.327930
    33  Co   4.268707   5.244882   4.268374   5.244878   3.037120
    34  H    8.366010   9.438043   7.826394   8.463148   6.384431
    35  H    7.826487   8.462857   8.365559   9.437887   7.403299
    36  H    2.712228   2.616010   4.011012   4.929019   4.311596
    37  H    4.011538   4.929529   2.712572   2.616558   2.131188
                   16         17         18         19         20
    16  C    0.000000
    17  H    4.617929   0.000000
    18  C    3.585546   1.090264   0.000000
    19  C    3.546648   2.248553   1.443043   0.000000
    20  H    2.844475   2.728914   2.217019   3.324315   0.000000
    21  N    2.465121   3.370557   2.333318   1.388341   3.370742
    22  C    1.387714   3.324084   2.254142   2.196422   2.248760
    23  C    2.497003   2.216851   1.365522   2.254582   1.090022
    24  C    6.858467   7.563831   6.863031   5.421142   8.393201
    25  H    7.563812   5.232356   5.226299   4.228514   7.417384
    26  C    6.863353   5.226514   4.993337   3.784508   7.093265
    27  C    7.329629   6.414462   6.036393   4.696108   8.008833
    28  H    8.393185   7.417379   7.092970   5.773584   9.091618
    29  C    6.327930   6.334938   5.729992   4.295137   7.455564
    30  N    5.030153   5.102043   4.409435   2.966443   6.070350
    31  C    5.421084   4.228875   3.784485   2.451172   5.773782
    32  C    4.849670   2.844507   2.496770   1.387367   4.617969
    33  Co   3.429234   5.244878   4.268374   3.037120   5.244882
    34  H    1.093078   4.929020   4.011012   4.311596   2.616010
    35  H    5.675621   2.616557   2.712572   2.131188   4.929529
    36  H    7.951544   8.463149   7.826394   6.384431   9.438043
    37  H    5.675319   9.437887   8.365559   7.403299   8.462857
                   21         22         23         24         25
    21  N    0.000000
    22  C    1.388251   0.000000
    23  C    2.333766   1.443399   0.000000
    24  C    5.029947   6.327563   7.329937   0.000000
    25  H    5.101601   6.334473   6.414585   4.617969   0.000000
    26  C    4.409343   5.729854   6.036863   3.585722   1.090022
    27  C    4.985260   6.368691   6.924474   2.496770   2.217019
    28  H    6.069971   7.455107   8.009042   2.844507   2.728914
    29  C    4.184054   5.557380   6.369412   1.387367   3.324315
    30  N    2.803194   4.183928   4.985911   2.464701   3.370742
    31  C    2.966002   4.294709   4.696490   3.546219   2.248760
    32  C    2.464701   3.546219   3.585722   4.849670   2.844475
    33  Co   1.982158   3.036818   4.268707   3.429234   5.244882
    34  H    3.421111   2.131336   2.712228   7.951544   8.462857
    35  H    3.420916   4.311520   4.011538   5.675319   2.616010
    36  H    6.087405   7.403008   8.366010   1.093078   4.929529
    37  H    6.087515   6.384194   7.826487   5.675621   9.438043
                   26         27         28         29         30
    26  C    0.000000
    27  C    1.365522   0.000000
    28  H    2.216851   1.090264   0.000000
    29  C    2.254582   1.443043   2.248553   0.000000
    30  N    2.333766   2.333318   3.370557   1.388341   0.000000
    31  C    1.443399   2.254142   3.324084   2.196422   1.388251
    32  C    2.497003   3.585546   4.617929   3.546648   2.465121
    33  Co   4.268707   4.268374   5.244878   3.037120   1.982158
    34  H    7.826487   8.365559   9.437887   7.403299   6.087515
    35  H    2.712228   4.011012   4.929020   4.311596   3.421111
    36  H    4.011538   2.712572   2.616557   2.131188   3.420916
    37  H    8.366010   7.826394   8.463149   6.384431   6.087405
                   31         32         33         34         35
    31  C    0.000000
    32  C    1.387714   0.000000
    33  Co   3.036818   3.429234   0.000000
    34  H    6.384194   5.675319   4.522312   0.000000
    35  H    2.131336   1.093078   4.522312   6.395516   0.000000
    36  H    4.311520   5.675621   4.522312   9.044621   6.395516
    37  H    7.403008   7.951544   4.522312   6.395516   9.044621
                   36         37
    36  H    0.000000
    37  H    6.395516   0.000000
 This structure is nearly, but not quite of a higher symmetry.
 Consider Symm=Loose if the higher symmetry is desired.
 Stoichiometry    C20H12CoN4(2)
 Framework group  C1[X(C20H12CoN4)]
 Deg. of freedom   105
 Full point group                 C1      NOp   1
 Largest Abelian subgroup         C1      NOp   1
 Largest concise Abelian subgroup C1      NOp   1
                         Standard orientation:                         
 ---------------------------------------------------------------------
 Center     Atomic      Atomic             Coordinates (Angstroms)
 Number     Number       Type             X           Y           Z
 ---------------------------------------------------------------------
      1          6           0        2.364410    1.906218    0.001000
      2          7           0        0.988907    1.717851    0.000000
      3          1           0        3.708689    3.708689    0.001000
      4          6           0        0.460666    3.001674   -0.001000
      5          6           0        1.510104    3.992674   -0.001000
      6          1           0        1.343507    5.069889   -0.002000
      7          6           0        2.693448    3.311247    0.001000
      8          6           0       -0.892097    3.311164   -0.002000
      9          7           0       -1.717851    0.988907    0.000000
     10          6           0       -3.001674    0.460666    0.001000
     11          6           0       -3.992674    1.510104    0.001000
     12          1           0       -5.069889    1.343507    0.002000
     13          6           0       -3.311247    2.693448   -0.001000
     14          1           0       -3.708689    3.708689   -0.001000
     15          6           0       -1.906218    2.364410   -0.001000
     16          6           0        3.311164    0.892097    0.002000
     17          1           0        3.708689   -3.708689   -0.002000
     18          6           0        3.311247   -2.693448   -0.001000
     19          6           0        1.906218   -2.364410   -0.001000
     20          1           0        5.069889   -1.343507    0.002000
     21          7           0        1.717851   -0.988907    0.000000
     22          6           0        3.001674   -0.460666    0.001000
     23          6           0        3.992674   -1.510104    0.001000
     24          6           0       -3.311164   -0.892097    0.002000
     25          1           0       -1.343507   -5.069889   -0.002000
     26          6           0       -1.510104   -3.992674   -0.001000
     27          6           0       -2.693448   -3.311247    0.001000
     28          1           0       -3.708689   -3.708689    0.002000
     29          6           0       -2.364410   -1.906218    0.001000
     30          7           0       -0.988907   -1.717851    0.000000
     31          6           0       -0.460666   -3.001674   -0.001000
     32          6           0        0.892097   -3.311164   -0.002000
     33         27           0        0.000000    0.000000    0.000000
     34          1           0        4.366671    1.176213    0.003000
     35          1           0        1.176213   -4.366671   -0.003000
     36          1           0       -4.366671   -1.176213    0.003000
     37          1           0       -1.176213    4.366671   -0.003000
 ---------------------------------------------------------------------
 Rotational constants (GHZ):      0.2714641      0.2714641      0.1357321
 Leave Link  202 at Sun Jul  5 15:56:26 2020, MaxMem=  4294967296 cpu:         2.8
 (Enter /usr/public/gaussian/g09.D01/l301.exe)
 General basis read from cards:  (5D, 7F)
 Centers:       1      4      5      7      8     10     11     13     15     16
 Centers:      18     19     22     23     24     26     27     29     31     32
 Centers:       2      9     21     30      3      6     12     14     17     20
 Centers:      25     28     34     35     36     37
 6-311G*
 ****
 Centers:      33
 def2svp
 ****
 Ernie: Thresh=  0.10000D-02 Tol=  0.10000D-05 Strict=F.
 There are   528 symmetry adapted cartesian basis functions of A   symmetry.
 There are   499 symmetry adapted basis functions of A   symmetry.
   499 basis functions,   909 primitive gaussians,   528 cartesian basis functions
    94 alpha electrons       93 beta electrons
       nuclear repulsion energy      2533.5309056189 Hartrees.
 IExCor=  402 DFT=T Ex+Corr=B3LYP ExCW=0 ScaHFX=  0.200000
 ScaDFX=  0.800000  0.720000  1.000000  0.810000 ScalE2=  1.000000  1.000000
 IRadAn=      0 IRanWt=     -1 IRanGd=            0 ICorTp=0 IEmpDi=  4
 NAtoms=   37 NActive=   37 NUniq=   37 SFac= 1.00D+00 NAtFMM=   60 NAOKFM=F Big=F
 Integral buffers will be    131072 words long.
 Raffenetti 2 integral format.
 Two-electron integral symmetry is turned on.
 Leave Link  301 at Sun Jul  5 15:56:26 2020, MaxMem=  4294967296 cpu:         1.5
 (Enter /usr/public/gaussian/g09.D01/l302.exe)
 NPDir=0 NMtPBC=     1 NCelOv=     1 NCel=       1 NClECP=     1 NCelD=      1
         NCelK=      1 NCelE2=     1 NClLst=     1 CellRange=     0.0.
 One-electron integrals computed using PRISM.
 NBasis=   499 RedAO= T EigKep=  1.49D-04  NBF=   499
 NBsUse=   499 1.00D-06 EigRej= -1.00D+00 NBFU=   499
 Precomputing XC quadrature grid using
 IXCGrd= 4 IRadAn=           0 IRanWt=          -1 IRanGd=           0 AccXCQ= 0.00D+00.
 Generated NRdTot=       0 NPtTot=           0 NUsed=           0 NTot=          32
 NSgBfM=   523   523   523   523   523 MxSgAt=    37 MxSgA2=    37.
 Leave Link  302 at Sun Jul  5 15:56:27 2020, MaxMem=  4294967296 cpu:        12.1
 (Enter /usr/public/gaussian/g09.D01/l303.exe)
 DipDrv:  MaxL=1.
 Leave Link  303 at Sun Jul  5 15:56:27 2020, MaxMem=  4294967296 cpu:         1.4
 (Enter /usr/public/gaussian/g09.D01/l401.exe)
 ExpMin= 3.59D-02 ExpMax= 6.59D+04 ExpMxC= 9.90D+03 IAcc=3 IRadAn=         5 AccDes= 0.00D+00
 Harris functional with IExCor=  402 and IRadAn=       5 diagonalized for initial guess.
 HarFok:  IExCor=  402 AccDes= 0.00D+00 IRadAn=         5 IDoV= 1 UseB2=F ITyADJ=14
 ICtDFT=  3500011 ScaDFX=  1.000000  1.000000  1.000000  1.000000
 FoFCou: FMM=F IPFlag=           0 FMFlag=      100000 FMFlg1=           0
         NFxFlg=           0 DoJE=T BraDBF=F KetDBF=T FulRan=T
         wScrn=  0.000000 ICntrl=     500 IOpCl=  0 I1Cent=   200000004 NGrid=           0
         NMat0=    1 NMatS0=      1 NMatT0=    0 NMatD0=    1 NMtDS0=    0 NMtDT0=    0
 Petite list used in FoFCou.
 Harris En= -2371.21079168902    
 JPrj=0 DoOrth=F DoCkMO=F.
 Initial guess <Sx>= 0.0000 <Sy>= 0.0000 <Sz>= 0.5000 <S**2>= 0.7500 S= 0.5000
 Leave Link  401 at Sun Jul  5 15:56:30 2020, MaxMem=  4294967296 cpu:        45.7
 (Enter /usr/public/gaussian/g09.D01/l502.exe)
 UHF open shell SCF:
 Using DIIS extrapolation, IDIIS=  1040.
 Integral symmetry usage will be decided dynamically.
 IVT=      867258 IEndB=      867258 NGot=  4294967296 MDV=  4294395991
 LenX=  4294395991 LenY=  4294116679
 Requested convergence on RMS density matrix=1.00D-08 within 128 cycles.
 Requested convergence on MAX density matrix=1.00D-06.
 Requested convergence on             energy=1.00D-06.
 No special actions if energy rises.
 Fock matrices will be formed incrementally for  20 cycles.

 Cycle   1  Pass 1  IDiag  1:
 FoFJK:  IHMeth= 1 ICntrl=       0 DoSepK=F KAlg= 0 I1Cent=   0 FoldK=F
 IRaf= 730000000 NMat=   1 IRICut=       1 DoRegI=T DoRafI=F ISym2E= 0.
 FoFCou: FMM=F IPFlag=           0 FMFlag=      100000 FMFlg1=           0
         NFxFlg=           0 DoJE=F BraDBF=F KetDBF=F FulRan=T
         wScrn=  0.000000 ICntrl=       0 IOpCl=  1 I1Cent=           0 NGrid=           0
         NMat0=    1 NMatS0=      1 NMatT0=    0 NMatD0=    1 NMtDS0=    0 NMtDT0=    0
 Symmetry not used in FoFCou.
 E= -2370.68078122342    
 DIIS: error= 5.46D-02 at cycle   1 NSaved=   1.
 NSaved= 1 IEnMin= 1 EnMin= -2370.68078122342     IErMin= 1 ErrMin= 5.46D-02
 ErrMax= 5.46D-02  0.00D+00 EMaxC= 1.00D-01 BMatC= 3.05D+00 BMatP= 3.05D+00
 IDIUse=3 WtCom= 4.54D-01 WtEn= 5.46D-01
 Coeff-Com:  0.100D+01
 Coeff-En:   0.100D+01
 Coeff:      0.100D+01
 Gap=     0.596 Goal=   None    Shift=    0.000
 DSYEVD-2 returned Info=         999 IAlg= 4 N=   499 NDim=   499 NE2=     8605443 trying  DSYEV.
 Gap=     0.063 Goal=   None    Shift=    0.000
 DSYEVD-2 returned Info=         999 IAlg= 4 N=   499 NDim=   499 NE2=     8605443 trying  DSYEV.
 GapD=    0.063 DampG=0.500 DampE=0.250 DampFc=0.1250 IDamp=-1.
 Damping current iteration by 1.25D-01
 RMSDP=4.55D-03 MaxDP=7.13D-01              OVMax= 8.01D-01

 Cycle   2  Pass 1  IDiag  1:
 RMSU=  5.66D-04    CP:  9.95D-01
 E= -2370.83406143351     Delta-E=       -0.153280210094 Rises=F Damp=T
 DIIS: error= 3.43D-02 at cycle   2 NSaved=   2.
 NSaved= 2 IEnMin= 2 EnMin= -2370.83406143351     IErMin= 2 ErrMin= 3.43D-02
 ErrMax= 3.43D-02  0.00D+00 EMaxC= 1.00D-01 BMatC= 1.22D+00 BMatP= 3.05D+00
 IDIUse=3 WtCom= 6.57D-01 WtEn= 3.43D-01
 Coeff-Com: -0.647D+00 0.165D+01
 Coeff-En:   0.000D+00 0.100D+01
 Coeff:     -0.425D+00 0.143D+01
 Gap=    -0.001 Goal=   None    Shift=    0.000
 Gap=     0.047 Goal=   None    Shift=    0.000
 RMSDP=2.17D-03 MaxDP=1.01D-01 DE=-1.53D-01 OVMax= 1.00D+00

 Cycle   3  Pass 1  IDiag  1:
 RMSU=  2.14D-03    CP:  9.84D-01  4.08D-01
 E= -2370.96076869227     Delta-E=       -0.126707258761 Rises=F Damp=F
 DIIS: error= 5.07D-02 at cycle   3 NSaved=   3.
 NSaved= 3 IEnMin= 3 EnMin= -2370.96076869227     IErMin= 2 ErrMin= 3.43D-02
 ErrMax= 5.07D-02  0.00D+00 EMaxC= 1.00D-01 BMatC= 1.69D+00 BMatP= 1.22D+00
 IDIUse=2 WtCom= 0.00D+00 WtEn= 1.00D+00
 Coeff-En:   0.000D+00 0.356D+00 0.644D+00
 Coeff:      0.000D+00 0.356D+00 0.644D+00
 Gap=     0.355 Goal=   None    Shift=    0.000
 Gap=     0.332 Goal=   None    Shift=    0.000
 RMSDP=4.38D-03 MaxDP=7.02D-01 DE=-1.27D-01 OVMax= 8.61D-01

 Cycle   4  Pass 1  IDiag  1:
 RMSU=  2.23D-03    CP:  9.68D-01  3.00D+00 -2.11D-01
 E= -2366.54666644005     Delta-E=        4.414102252219 Rises=F Damp=F
 DIIS: error= 1.87D-01 at cycle   4 NSaved=   4.
 NSaved= 4 IEnMin= 3 EnMin= -2370.96076869227     IErMin= 2 ErrMin= 3.43D-02
 ErrMax= 1.87D-01  0.00D+00 EMaxC= 1.00D-01 BMatC= 1.93D+01 BMatP= 1.22D+00
 IDIUse=2 WtCom= 0.00D+00 WtEn= 1.00D+00
 EnCoef did   100 forward-backward iterations
 Coeff-En:   0.969D-01 0.182D-01 0.752D+00 0.133D+00
 Coeff:      0.969D-01 0.182D-01 0.752D+00 0.133D+00
 Gap=     0.017 Goal=   None    Shift=    0.000
 DSYEVD-2 returned Info=      218999 IAlg= 4 N=   499 NDim=   499 NE2=     8605443 trying  DSYEV.
 Gap=    -0.052 Goal=   None    Shift=    0.000
 RMSDP=3.02D-03 MaxDP=6.91D-01 DE= 4.41D+00 OVMax= 1.00D+00

 Cycle   5  Pass 1  IDiag  1:
 RMSU=  1.18D-03    CP:  9.80D-01  1.91D+00  1.79D-01  5.63D-02
 E= -2371.19092358507     Delta-E=       -4.644257145022 Rises=F Damp=F
 DIIS: error= 3.79D-02 at cycle   5 NSaved=   5.
 NSaved= 5 IEnMin= 5 EnMin= -2371.19092358507     IErMin= 2 ErrMin= 3.43D-02
 ErrMax= 3.79D-02  0.00D+00 EMaxC= 1.00D-01 BMatC= 6.02D-01 BMatP= 1.22D+00
 IDIUse=3 WtCom= 6.21D-01 WtEn= 3.79D-01
 Coeff-Com: -0.254D+00 0.428D+00 0.377D+00-0.177D-01 0.466D+00
 Coeff-En:   0.000D+00 0.000D+00 0.304D+00 0.000D+00 0.696D+00
 Coeff:     -0.157D+00 0.266D+00 0.349D+00-0.110D-01 0.554D+00
 Gap=     0.162 Goal=   None    Shift=    0.000
 DSYEVD-2 returned Info=      125499 IAlg= 4 N=   499 NDim=   499 NE2=     8605443 trying  DSYEV.
 Gap=     0.154 Goal=   None    Shift=    0.000
 RMSDP=9.75D-04 MaxDP=6.55D-02 DE=-4.64D+00 OVMax= 1.06D-01

 Cycle   6  Pass 1  IDiag  1:
 RMSU=  2.43D-04    CP:  9.83D-01  1.09D+00  4.88D-01  4.03D-02  5.85D-01
 E= -2371.30278526763     Delta-E=       -0.111861682552 Rises=F Damp=F
 DIIS: error= 7.44D-03 at cycle   6 NSaved=   6.
 NSaved= 6 IEnMin= 6 EnMin= -2371.30278526763     IErMin= 6 ErrMin= 7.44D-03
 ErrMax= 7.44D-03  0.00D+00 EMaxC= 1.00D-01 BMatC= 2.54D-02 BMatP= 6.02D-01
 IDIUse=3 WtCom= 9.26D-01 WtEn= 7.44D-02
 Coeff-Com: -0.109D+00 0.123D+00 0.346D-01-0.251D-03 0.120D+00 0.831D+00
 Coeff-En:   0.000D+00 0.000D+00 0.000D+00 0.000D+00 0.000D+00 0.100D+01
 Coeff:     -0.101D+00 0.114D+00 0.320D-01-0.233D-03 0.111D+00 0.844D+00
 Gap=     0.113 Goal=   None    Shift=    0.000
 Gap=     0.113 Goal=   None    Shift=    0.000
 RMSDP=2.05D-04 MaxDP=1.68D-02 DE=-1.12D-01 OVMax= 2.68D-02

 Cycle   7  Pass 1  IDiag  1:
 RMSU=  9.18D-05    CP:  9.81D-01  1.29D+00  4.64D-01  4.63D-02  6.99D-01
                    CP:  9.48D-01
 E= -2371.30677408113     Delta-E=       -0.003988813507 Rises=F Damp=F
 DIIS: error= 2.34D-03 at cycle   7 NSaved=   7.
 NSaved= 7 IEnMin= 7 EnMin= -2371.30677408113     IErMin= 7 ErrMin= 2.34D-03
 ErrMax= 2.34D-03  0.00D+00 EMaxC= 1.00D-01 BMatC= 2.46D-03 BMatP= 2.54D-02
 IDIUse=3 WtCom= 9.77D-01 WtEn= 2.34D-02
 Coeff-Com: -0.491D-01 0.511D-01 0.823D-03 0.126D-02 0.405D-01 0.513D+00
 Coeff-Com:  0.442D+00
 Coeff-En:   0.000D+00 0.000D+00 0.000D+00 0.000D+00 0.000D+00 0.305D-01
 Coeff-En:   0.970D+00
 Coeff:     -0.480D-01 0.499D-01 0.804D-03 0.123D-02 0.395D-01 0.502D+00
 Coeff:      0.454D+00
 Gap=     0.114 Goal=   None    Shift=    0.000
 Gap=     0.114 Goal=   None    Shift=    0.000
 RMSDP=6.47D-05 MaxDP=5.16D-03 DE=-3.99D-03 OVMax= 8.83D-03

 Cycle   8  Pass 1  IDiag  1:
 RMSU=  2.86D-05    CP:  9.81D-01  1.26D+00  4.66D-01  4.54D-02  6.79D-01
                    CP:  1.04D+00  5.19D-01
 E= -2371.30712932995     Delta-E=       -0.000355248814 Rises=F Damp=F
 DIIS: error= 1.41D-03 at cycle   8 NSaved=   8.
 NSaved= 8 IEnMin= 8 EnMin= -2371.30712932995     IErMin= 8 ErrMin= 1.41D-03
 ErrMax= 1.41D-03  0.00D+00 EMaxC= 1.00D-01 BMatC= 8.25D-04 BMatP= 2.46D-03
 IDIUse=3 WtCom= 9.86D-01 WtEn= 1.41D-02
 Coeff-Com: -0.144D-01 0.142D-01-0.621D-02 0.432D-03 0.127D-02 0.114D+00
 Coeff-Com:  0.334D+00 0.557D+00
 Coeff-En:   0.000D+00 0.000D+00 0.000D+00 0.000D+00 0.000D+00 0.000D+00
 Coeff-En:   0.260D+00 0.740D+00
 Coeff:     -0.142D-01 0.140D-01-0.612D-02 0.426D-03 0.125D-02 0.112D+00
 Coeff:      0.333D+00 0.560D+00
 Gap=     0.114 Goal=   None    Shift=    0.000
 DSYEVD-2 returned Info=      125499 IAlg= 4 N=   499 NDim=   499 NE2=     8605443 trying  DSYEV.
 Gap=     0.114 Goal=   None    Shift=    0.000
 RMSDP=3.23D-05 MaxDP=1.98D-03 DE=-3.55D-04 OVMax= 3.76D-03

 Cycle   9  Pass 1  IDiag  1:
 RMSU=  1.46D-05    CP:  9.81D-01  1.28D+00  4.59D-01  4.55D-02  6.93D-01
                    CP:  1.05D+00  6.09D-01  7.53D-01
 E= -2371.30728963281     Delta-E=       -0.000160302859 Rises=F Damp=F
 DIIS: error= 2.13D-04 at cycle   9 NSaved=   9.
 NSaved= 9 IEnMin= 9 EnMin= -2371.30728963281     IErMin= 9 ErrMin= 2.13D-04
 ErrMax= 2.13D-04  0.00D+00 EMaxC= 1.00D-01 BMatC= 2.08D-05 BMatP= 8.25D-04
 IDIUse=3 WtCom= 9.98D-01 WtEn= 2.13D-03
 Coeff-Com:  0.106D-02-0.102D-02-0.325D-02 0.115D-03-0.753D-02-0.188D-01
 Coeff-Com:  0.961D-01 0.207D+00 0.726D+00
 Coeff-En:   0.000D+00 0.000D+00 0.000D+00 0.000D+00 0.000D+00 0.000D+00
 Coeff-En:   0.000D+00 0.000D+00 0.100D+01
 Coeff:      0.106D-02-0.102D-02-0.325D-02 0.115D-03-0.751D-02-0.187D-01
 Coeff:      0.959D-01 0.207D+00 0.727D+00
 Gap=     0.114 Goal=   None    Shift=    0.000
 Gap=     0.114 Goal=   None    Shift=    0.000
 RMSDP=6.84D-06 MaxDP=5.93D-04 DE=-1.60D-04 OVMax= 1.33D-03

 Cycle  10  Pass 1  IDiag  1:
 RMSU=  5.04D-06    CP:  9.81D-01  1.28D+00  4.60D-01  4.56D-02  6.94D-01
                    CP:  1.06D+00  6.27D-01  8.33D-01  9.11D-01
 E= -2371.30729387142     Delta-E=       -0.000004238612 Rises=F Damp=F
 DIIS: error= 1.31D-04 at cycle  10 NSaved=  10.
 NSaved=10 IEnMin=10 EnMin= -2371.30729387142     IErMin=10 ErrMin= 1.31D-04
 ErrMax= 1.31D-04  0.00D+00 EMaxC= 1.00D-01 BMatC= 1.20D-05 BMatP= 2.08D-05
 IDIUse=3 WtCom= 9.99D-01 WtEn= 1.31D-03
 Coeff-Com:  0.300D-02-0.330D-02-0.167D-02 0.346D-04-0.529D-02-0.206D-01
 Coeff-Com:  0.294D-01 0.617D-01 0.457D+00 0.480D+00
 Coeff-En:   0.000D+00 0.000D+00 0.000D+00 0.000D+00 0.000D+00 0.000D+00
 Coeff-En:   0.000D+00 0.000D+00 0.187D+00 0.813D+00
 Coeff:      0.300D-02-0.330D-02-0.167D-02 0.346D-04-0.529D-02-0.206D-01
 Coeff:      0.294D-01 0.616D-01 0.457D+00 0.480D+00
 Gap=     0.114 Goal=   None    Shift=    0.000
 Gap=     0.114 Goal=   None    Shift=    0.000
 RMSDP=3.18D-06 MaxDP=1.87D-04 DE=-4.24D-06 OVMax= 4.72D-04

 Cycle  11  Pass 1  IDiag  1:
 RMSU=  1.85D-06    CP:  9.81D-01  1.28D+00  4.60D-01  4.58D-02  6.94D-01
                    CP:  1.06D+00  6.40D-01  8.33D-01  9.48D-01  6.83D-01
 E= -2371.30729697650     Delta-E=       -0.000003105078 Rises=F Damp=F
 DIIS: error= 5.62D-05 at cycle  11 NSaved=  11.
 NSaved=11 IEnMin=11 EnMin= -2371.30729697650     IErMin=11 ErrMin= 5.62D-05
 ErrMax= 5.62D-05  0.00D+00 EMaxC= 1.00D-01 BMatC= 7.06D-07 BMatP= 1.20D-05
 IDIUse=1 WtCom= 1.00D+00 WtEn= 0.00D+00
 Coeff-Com:  0.545D-03-0.675D-03-0.891D-04 0.321D-05-0.493D-03 0.192D-02
 Coeff-Com: -0.114D-02-0.130D-01-0.370D-01 0.289D-02 0.105D+01
 Coeff:      0.545D-03-0.675D-03-0.891D-04 0.321D-05-0.493D-03 0.192D-02
 Coeff:     -0.114D-02-0.130D-01-0.370D-01 0.289D-02 0.105D+01
 Gap=     0.114 Goal=   None    Shift=    0.000
 Gap=     0.114 Goal=   None    Shift=    0.000
 RMSDP=1.36D-06 MaxDP=1.67D-04 DE=-3.11D-06 OVMax= 3.59D-04

 Cycle  12  Pass 1  IDiag  1:
 RMSU=  5.56D-07    CP:  9.81D-01  1.28D+00  4.60D-01  4.58D-02  6.93D-01
                    CP:  1.07D+00  6.42D-01  8.37D-01  9.54D-01  7.31D-01
                    CP:  1.28D+00
 E= -2371.30729720228     Delta-E=       -0.000000225779 Rises=F Damp=F
 DIIS: error= 1.33D-05 at cycle  12 NSaved=  12.
 NSaved=12 IEnMin=12 EnMin= -2371.30729720228     IErMin=12 ErrMin= 1.33D-05
 ErrMax= 1.33D-05  0.00D+00 EMaxC= 1.00D-01 BMatC= 3.31D-08 BMatP= 7.06D-07
 IDIUse=1 WtCom= 1.00D+00 WtEn= 0.00D+00
 Coeff-Com: -0.299D-03 0.353D-03 0.212D-03-0.863D-05 0.465D-03 0.229D-02
 Coeff-Com: -0.344D-02-0.882D-02-0.586D-01-0.557D-01 0.250D+00 0.874D+00
 Coeff:     -0.299D-03 0.353D-03 0.212D-03-0.863D-05 0.465D-03 0.229D-02
 Coeff:     -0.344D-02-0.882D-02-0.586D-01-0.557D-01 0.250D+00 0.874D+00
 Gap=     0.114 Goal=   None    Shift=    0.000
 Gap=     0.114 Goal=   None    Shift=    0.000
 RMSDP=3.62D-07 MaxDP=4.94D-05 DE=-2.26D-07 OVMax= 9.73D-05

 Cycle  13  Pass 1  IDiag  1:
 RMSU=  2.70D-07    CP:  9.81D-01  1.28D+00  4.60D-01  4.58D-02  6.93D-01
                    CP:  1.07D+00  6.42D-01  8.38D-01  9.55D-01  7.56D-01
                    CP:  1.36D+00  1.21D+00
 E= -2371.30729722210     Delta-E=       -0.000000019826 Rises=F Damp=F
 DIIS: error= 4.31D-06 at cycle  13 NSaved=  13.
 NSaved=13 IEnMin=13 EnMin= -2371.30729722210     IErMin=13 ErrMin= 4.31D-06
 ErrMax= 4.31D-06  0.00D+00 EMaxC= 1.00D-01 BMatC= 1.55D-08 BMatP= 3.31D-08
 IDIUse=1 WtCom= 1.00D+00 WtEn= 0.00D+00
 Coeff-Com: -0.215D-03 0.246D-03 0.117D-03-0.340D-05 0.361D-03 0.803D-03
 Coeff-Com: -0.180D-02-0.222D-02-0.220D-01-0.252D-01-0.432D-01 0.426D+00
 Coeff-Com:  0.667D+00
 Coeff:     -0.215D-03 0.246D-03 0.117D-03-0.340D-05 0.361D-03 0.803D-03
 Coeff:     -0.180D-02-0.222D-02-0.220D-01-0.252D-01-0.432D-01 0.426D+00
 Coeff:      0.667D+00
 Gap=     0.113 Goal=   None    Shift=    0.000
 DSYEVD-2 returned Info=         999 IAlg= 4 N=   499 NDim=   499 NE2=     8605443 trying  DSYEV.
 Gap=     0.114 Goal=   None    Shift=    0.000
 RMSDP=1.68D-07 MaxDP=1.95D-05 DE=-1.98D-08 OVMax= 4.01D-05

 Cycle  14  Pass 1  IDiag  1:
 RMSU=  1.23D-07    CP:  9.81D-01  1.28D+00  4.60D-01  4.58D-02  6.93D-01
                    CP:  1.07D+00  6.42D-01  8.38D-01  9.58D-01  7.57D-01
                    CP:  1.39D+00  1.35D+00  1.02D+00
 E= -2371.30729722782     Delta-E=       -0.000000005721 Rises=F Damp=F
 DIIS: error= 2.15D-06 at cycle  14 NSaved=  14.
 NSaved=14 IEnMin=14 EnMin= -2371.30729722782     IErMin=14 ErrMin= 2.15D-06
 ErrMax= 2.15D-06  0.00D+00 EMaxC= 1.00D-01 BMatC= 2.19D-09 BMatP= 1.55D-08
 IDIUse=1 WtCom= 1.00D+00 WtEn= 0.00D+00
 Coeff-Com: -0.345D-04 0.406D-04 0.138D-04-0.420D-06 0.722D-04-0.130D-03
 Coeff-Com: -0.436D-03 0.623D-03 0.208D-02 0.390D-02-0.585D-01-0.708D-01
 Coeff-Com:  0.184D+00 0.939D+00
 Coeff:     -0.345D-04 0.406D-04 0.138D-04-0.420D-06 0.722D-04-0.130D-03
 Coeff:     -0.436D-03 0.623D-03 0.208D-02 0.390D-02-0.585D-01-0.708D-01
 Coeff:      0.184D+00 0.939D+00
 Gap=     0.113 Goal=   None    Shift=    0.000
 Gap=     0.114 Goal=   None    Shift=    0.000
 RMSDP=9.61D-08 MaxDP=1.17D-05 DE=-5.72D-09 OVMax= 2.35D-05

 Cycle  15  Pass 1  IDiag  1:
 RMSU=  4.77D-08    CP:  9.81D-01  1.28D+00  4.60D-01  4.58D-02  6.93D-01
                    CP:  1.07D+00  6.42D-01  8.38D-01  9.58D-01  7.60D-01
                    CP:  1.41D+00  1.45D+00  1.20D+00  1.10D+00
 E= -2371.30729722907     Delta-E=       -0.000000001249 Rises=F Damp=F
 DIIS: error= 9.31D-07 at cycle  15 NSaved=  15.
 NSaved=15 IEnMin=15 EnMin= -2371.30729722907     IErMin=15 ErrMin= 9.31D-07
 ErrMax= 9.31D-07  0.00D+00 EMaxC= 1.00D-01 BMatC= 5.84D-10 BMatP= 2.19D-09
 IDIUse=1 WtCom= 1.00D+00 WtEn= 0.00D+00
 Coeff-Com: -0.636D-05 0.778D-05 0.117D-05-0.138D-06 0.202D-04-0.106D-03
 Coeff-Com: -0.184D-03 0.416D-03 0.219D-02 0.427D-02-0.275D-01-0.754D-01
 Coeff-Com:  0.399D-01 0.529D+00 0.528D+00
 Coeff:     -0.636D-05 0.778D-05 0.117D-05-0.138D-06 0.202D-04-0.106D-03
 Coeff:     -0.184D-03 0.416D-03 0.219D-02 0.427D-02-0.275D-01-0.754D-01
 Coeff:      0.399D-01 0.529D+00 0.528D+00
 Gap=     0.113 Goal=   None    Shift=    0.000
 DSYEVD-2 returned Info=         999 IAlg= 4 N=   499 NDim=   499 NE2=     8605443 trying  DSYEV.
 Gap=     0.114 Goal=   None    Shift=    0.000
 RMSDP=3.07D-08 MaxDP=1.15D-06 DE=-1.25D-09 OVMax= 4.47D-06

 Cycle  16  Pass 1  IDiag  1:
 RMSU=  2.34D-08    CP:  9.81D-01  1.28D+00  4.60D-01  4.58D-02  6.93D-01
                    CP:  1.07D+00  6.42D-01  8.38D-01  9.58D-01  7.61D-01
                    CP:  1.41D+00  1.46D+00  1.22D+00  1.19D+00  8.13D-01
 E= -2371.30729722928     Delta-E=       -0.000000000207 Rises=F Damp=F
 DIIS: error= 3.30D-07 at cycle  16 NSaved=  16.
 NSaved=16 IEnMin=16 EnMin= -2371.30729722928     IErMin=16 ErrMin= 3.30D-07
 ErrMax= 3.30D-07  0.00D+00 EMaxC= 1.00D-01 BMatC= 1.01D-10 BMatP= 5.84D-10
 IDIUse=1 WtCom= 1.00D+00 WtEn= 0.00D+00
 Coeff-Com:  0.545D-05-0.710D-05-0.255D-05 0.401D-07-0.592D-05 0.134D-04
 Coeff-Com:  0.543D-05-0.464D-04 0.147D-04 0.906D-03 0.506D-02-0.130D-01
 Coeff-Com: -0.408D-01-0.377D-01 0.278D+00 0.807D+00
 Coeff:      0.545D-05-0.710D-05-0.255D-05 0.401D-07-0.592D-05 0.134D-04
 Coeff:      0.543D-05-0.464D-04 0.147D-04 0.906D-03 0.506D-02-0.130D-01
 Coeff:     -0.408D-01-0.377D-01 0.278D+00 0.807D+00
 Gap=     0.113 Goal=   None    Shift=    0.000
 Gap=     0.114 Goal=   None    Shift=    0.000
 RMSDP=1.78D-08 MaxDP=9.44D-07 DE=-2.07D-10 OVMax= 3.74D-06

 Cycle  17  Pass 1  IDiag  1:
 RMSU=  1.01D-08    CP:  9.81D-01  1.28D+00  4.60D-01  4.58D-02  6.93D-01
                    CP:  1.07D+00  6.42D-01  8.38D-01  9.58D-01  7.62D-01
                    CP:  1.41D+00  1.47D+00  1.24D+00  1.24D+00  1.03D+00
                    CP:  1.07D+00
 E= -2371.30729722926     Delta-E=        0.000000000019 Rises=F Damp=F
 DIIS: error= 1.25D-07 at cycle  17 NSaved=  17.
 NSaved=17 IEnMin=16 EnMin= -2371.30729722928     IErMin=17 ErrMin= 1.25D-07
 ErrMax= 1.25D-07  0.00D+00 EMaxC= 1.00D-01 BMatC= 8.64D-12 BMatP= 1.01D-10
 IDIUse=1 WtCom= 1.00D+00 WtEn= 0.00D+00
 Coeff-Com:  0.189D-06 0.158D-06-0.240D-06 0.809D-08-0.474D-05 0.983D-05
 Coeff-Com:  0.509D-04-0.364D-04-0.172D-03-0.766D-03 0.374D-02 0.136D-01
 Coeff-Com: -0.645D-02-0.892D-01-0.100D+00-0.246D-01 0.120D+01
 Coeff:      0.189D-06 0.158D-06-0.240D-06 0.809D-08-0.474D-05 0.983D-05
 Coeff:      0.509D-04-0.364D-04-0.172D-03-0.766D-03 0.374D-02 0.136D-01
 Coeff:     -0.645D-02-0.892D-01-0.100D+00-0.246D-01 0.120D+01
 Gap=     0.113 Goal=   None    Shift=    0.000
 Gap=     0.114 Goal=   None    Shift=    0.000
 RMSDP=1.14D-08 MaxDP=1.10D-06 DE= 1.91D-11 OVMax= 2.80D-06

 Cycle  18  Pass 1  IDiag  1:
 RMSU=  6.44D-09    CP:  9.81D-01  1.28D+00  4.60D-01  4.58D-02  6.93D-01
                    CP:  1.07D+00  6.42D-01  8.38D-01  9.58D-01  7.61D-01
                    CP:  1.41D+00  1.47D+00  1.25D+00  1.26D+00  1.13D+00
                    CP:  1.32D+00  1.40D+00
 E= -2371.30729722927     Delta-E=       -0.000000000009 Rises=F Damp=F
 DIIS: error= 2.02D-07 at cycle  18 NSaved=  18.
 NSaved=18 IEnMin=16 EnMin= -2371.30729722928     IErMin=17 ErrMin= 1.25D-07
 ErrMax= 2.02D-07  0.00D+00 EMaxC= 1.00D-01 BMatC= 1.08D-11 BMatP= 8.64D-12
 IDIUse=1 WtCom= 1.00D+00 WtEn= 0.00D+00
 Coeff-Com: -0.398D-06 0.856D-06 0.696D-07 0.485D-08-0.309D-05 0.420D-05
 Coeff-Com:  0.390D-04-0.197D-04-0.109D-03-0.678D-03 0.203D-02 0.113D-01
 Coeff-Com:  0.101D-02-0.593D-01-0.109D+00-0.122D+00 0.869D+00 0.408D+00
 Coeff:     -0.398D-06 0.856D-06 0.696D-07 0.485D-08-0.309D-05 0.420D-05
 Coeff:      0.390D-04-0.197D-04-0.109D-03-0.678D-03 0.203D-02 0.113D-01
 Coeff:      0.101D-02-0.593D-01-0.109D+00-0.122D+00 0.869D+00 0.408D+00
 Gap=     0.113 Goal=   None    Shift=    0.000
 DSYEVD-2 returned Info=      125499 IAlg= 4 N=   499 NDim=   499 NE2=     8605443 trying  DSYEV.
 Gap=     0.114 Goal=   None    Shift=    0.000
 RMSDP=5.38D-09 MaxDP=4.50D-07 DE=-9.09D-12 OVMax= 1.51D-06

 SCF Done:  E(UB3LYP) =  -2371.30729723     A.U. after   18 cycles
            NFock= 18  Conv=0.54D-08     -V/T= 2.0030
 <Sx>= 0.0000 <Sy>= 0.0000 <Sz>= 0.5000 <S**2>= 0.7562 S= 0.5031
 <L.S>= 0.000000000000E+00
 KE= 2.364205894587D+03 PE=-1.066202641108D+04 EE= 3.392982313647D+03
 Annihilation of the first spin contaminant:
 S**2 before annihilation     0.7562,   after     0.7500
 Leave Link  502 at Sun Jul  5 15:59:14 2020, MaxMem=  4294967296 cpu:      2599.1
 (Enter /usr/public/gaussian/g09.D01/l601.exe)
 Copying SCF densities to generalized density rwf, IOpCl= 1 IROHF=0.

 **********************************************************************

            Population analysis using the SCF density.

 **********************************************************************

 Orbital symmetries:
 Alpha Orbitals:
       Occupied  (A) (A) (A) (A) (A) (A) (A) (A) (A) (A) (A) (A)
                 (A) (A) (A) (A) (A) (A) (A) (A) (A) (A) (A) (A)
                 (A) (A) (A) (A) (A) (A) (A) (A) (A) (A) (A) (A)
                 (A) (A) (A) (A) (A) (A) (A) (A) (A) (A) (A) (A)
                 (A) (A) (A) (A) (A) (A) (A) (A) (A) (A) (A) (A)
                 (A) (A) (A) (A) (A) (A) (A) (A) (A) (A) (A) (A)
                 (A) (A) (A) (A) (A) (A) (A) (A) (A) (A) (A) (A)
                 (A) (A) (A) (A) (A) (A) (A) (A) (A) (A)
       Virtual   (A) (A) (A) (A) (A) (A) (A) (A) (A) (A) (A) (A)
                 (A) (A) (A) (A) (A) (A) (A) (A) (A) (A) (A) (A)
                 (A) (A) (A) (A) (A) (A) (A) (A) (A) (A) (A) (A)
                 (A) (A) (A) (A) (A) (A) (A) (A) (A) (A) (A) (A)
                 (A) (A) (A) (A) (A) (A) (A) (A) (A) (A) (A) (A)
                 (A) (A) (A) (A) (A) (A) (A) (A) (A) (A) (A) (A)
                 (A) (A) (A) (A) (A) (A) (A) (A) (A) (A) (A) (A)
                 (A) (A) (A) (A) (A) (A) (A) (A) (A) (A) (A) (A)
                 (A) (A) (A) (A) (A) (A) (A) (A) (A) (A) (A) (A)
                 (A) (A) (A) (A) (A) (A) (A) (A) (A) (A) (A) (A)
                 (A) (A) (A) (A) (A) (A) (A) (A) (A) (A) (A) (A)
                 (A) (A) (A) (A) (A) (A) (A) (A) (A) (A) (A) (A)
                 (A) (A) (A) (A) (A) (A) (A) (A) (A) (A) (A) (A)
                 (A) (A) (A) (A) (A) (A) (A) (A) (A) (A) (A) (A)
                 (A) (A) (A) (A) (A) (A) (A) (A) (A) (A) (A) (A)
                 (A) (A) (A) (A) (A) (A) (A) (A) (A) (A) (A) (A)
                 (A) (A) (A) (A) (A) (A) (A) (A) (A) (A) (A) (A)
                 (A) (A) (A) (A) (A) (A) (A) (A) (A) (A) (A) (A)
                 (A) (A) (A) (A) (A) (A) (A) (A) (A) (A) (A) (A)
                 (A) (A) (A) (A) (A) (A) (A) (A) (A) (A) (A) (A)
                 (A) (A) (A) (A) (A) (A) (A) (A) (A) (A) (A) (A)
                 (A) (A) (A) (A) (A) (A) (A) (A) (A) (A) (A) (A)
                 (A) (A) (A) (A) (A) (A) (A) (A) (A) (A) (A) (A)
                 (A) (A) (A) (A) (A) (A) (A) (A) (A) (A) (A) (A)
                 (A) (A) (A) (A) (A) (A) (A) (A) (A) (A) (A) (A)
                 (A) (A) (A) (A) (A) (A) (A) (A) (A) (A) (A) (A)
                 (A) (A) (A) (A) (A) (A) (A) (A) (A) (A) (A) (A)
                 (A) (A) (A) (A) (A) (A) (A) (A) (A) (A) (A) (A)
                 (A) (A) (A) (A) (A) (A) (A) (A) (A) (A) (A) (A)
                 (A) (A) (A) (A) (A) (A) (A) (A) (A) (A) (A) (A)
                 (A) (A) (A) (A) (A) (A) (A) (A) (A) (A) (A) (A)
                 (A) (A) (A) (A) (A) (A) (A) (A) (A) (A) (A) (A)
                 (A) (A) (A) (A) (A) (A) (A) (A) (A) (A) (A) (A)
                 (A) (A) (A) (A) (A) (A) (A) (A) (A)
 Beta  Orbitals:
       Occupied  (A) (A) (A) (A) (A) (A) (A) (A) (A) (A) (A) (A)
                 (A) (A) (A) (A) (A) (A) (A) (A) (A) (A) (A) (A)
                 (A) (A) (A) (A) (A) (A) (A) (A) (A) (A) (A) (A)
                 (A) (A) (A) (A) (A) (A) (A) (A) (A) (A) (A) (A)
                 (A) (A) (A) (A) (A) (A) (A) (A) (A) (A) (A) (A)
                 (A) (A) (A) (A) (A) (A) (A) (A) (A) (A) (A) (A)
                 (A) (A) (A) (A) (A) (A) (A) (A) (A) (A) (A) (A)
                 (A) (A) (A) (A) (A) (A) (A) (A) (A)
       Virtual   (A) (A) (A) (A) (A) (A) (A) (A) (A) (A) (A) (A)
                 (A) (A) (A) (A) (A) (A) (A) (A) (A) (A) (A) (A)
                 (A) (A) (A) (A) (A) (A) (A) (A) (A) (A) (A) (A)
                 (A) (A) (A) (A) (A) (A) (A) (A) (A) (A) (A) (A)
                 (A) (A) (A) (A) (A) (A) (A) (A) (A) (A) (A) (A)
                 (A) (A) (A) (A) (A) (A) (A) (A) (A) (A) (A) (A)
                 (A) (A) (A) (A) (A) (A) (A) (A) (A) (A) (A) (A)
                 (A) (A) (A) (A) (A) (A) (A) (A) (A) (A) (A) (A)
                 (A) (A) (A) (A) (A) (A) (A) (A) (A) (A) (A) (A)
                 (A) (A) (A) (A) (A) (A) (A) (A) (A) (A) (A) (A)
                 (A) (A) (A) (A) (A) (A) (A) (A) (A) (A) (A) (A)
                 (A) (A) (A) (A) (A) (A) (A) (A) (A) (A) (A) (A)
                 (A) (A) (A) (A) (A) (A) (A) (A) (A) (A) (A) (A)
                 (A) (A) (A) (A) (A) (A) (A) (A) (A) (A) (A) (A)
                 (A) (A) (A) (A) (A) (A) (A) (A) (A) (A) (A) (A)
                 (A) (A) (A) (A) (A) (A) (A) (A) (A) (A) (A) (A)
                 (A) (A) (A) (A) (A) (A) (A) (A) (A) (A) (A) (A)
                 (A) (A) (A) (A) (A) (A) (A) (A) (A) (A) (A) (A)
                 (A) (A) (A) (A) (A) (A) (A) (A) (A) (A) (A) (A)
                 (A) (A) (A) (A) (A) (A) (A) (A) (A) (A) (A) (A)
                 (A) (A) (A) (A) (A) (A) (A) (A) (A) (A) (A) (A)
                 (A) (A) (A) (A) (A) (A) (A) (A) (A) (A) (A) (A)
                 (A) (A) (A) (A) (A) (A) (A) (A) (A) (A) (A) (A)
                 (A) (A) (A) (A) (A) (A) (A) (A) (A) (A) (A) (A)
                 (A) (A) (A) (A) (A) (A) (A) (A) (A) (A) (A) (A)
                 (A) (A) (A) (A) (A) (A) (A) (A) (A) (A) (A) (A)
                 (A) (A) (A) (A) (A) (A) (A) (A) (A) (A) (A) (A)
                 (A) (A) (A) (A) (A) (A) (A) (A) (A) (A) (A) (A)
                 (A) (A) (A) (A) (A) (A) (A) (A) (A) (A) (A) (A)
                 (A) (A) (A) (A) (A) (A) (A) (A) (A) (A) (A) (A)
                 (A) (A) (A) (A) (A) (A) (A) (A) (A) (A) (A) (A)
                 (A) (A) (A) (A) (A) (A) (A) (A) (A) (A) (A) (A)
                 (A) (A) (A) (A) (A) (A) (A) (A) (A) (A) (A) (A)
                 (A) (A) (A) (A) (A) (A) (A) (A) (A) (A)
 The electronic state is 2-A.
 Alpha  occ. eigenvalues -- -277.52720 -32.85742 -28.51086 -28.51086 -28.50644
 Alpha  occ. eigenvalues --  -14.32208 -14.32208 -14.32208 -14.32208 -10.20872
 Alpha  occ. eigenvalues --  -10.20872 -10.20872 -10.20872 -10.20867 -10.20867
 Alpha  occ. eigenvalues --  -10.20867 -10.20867 -10.18249 -10.18248 -10.18248
 Alpha  occ. eigenvalues --  -10.18248 -10.17669 -10.17669 -10.17669 -10.17669
 Alpha  occ. eigenvalues --  -10.17604 -10.17604 -10.17604 -10.17604  -3.73856
 Alpha  occ. eigenvalues --   -2.42482  -2.41948  -2.41948  -0.96414  -0.95399
 Alpha  occ. eigenvalues --   -0.95399  -0.94367  -0.82078  -0.79308  -0.79308
 Alpha  occ. eigenvalues --   -0.77721  -0.77057  -0.77057  -0.76704  -0.74450
 Alpha  occ. eigenvalues --   -0.71671  -0.65692  -0.65692  -0.60014  -0.58078
 Alpha  occ. eigenvalues --   -0.57420  -0.57420  -0.57109  -0.54795  -0.54642
 Alpha  occ. eigenvalues --   -0.52530  -0.52530  -0.51647  -0.49855  -0.49855
 Alpha  occ. eigenvalues --   -0.45806  -0.43696  -0.42927  -0.42843  -0.42843
 Alpha  occ. eigenvalues --   -0.42720  -0.41629  -0.41629  -0.41386  -0.39919
 Alpha  occ. eigenvalues --   -0.39919  -0.39432  -0.39289  -0.39028  -0.38608
 Alpha  occ. eigenvalues --   -0.37723  -0.37723  -0.36821  -0.34839  -0.32936
 Alpha  occ. eigenvalues --   -0.32468  -0.32468  -0.28823  -0.28823  -0.28476
 Alpha  occ. eigenvalues --   -0.28476  -0.28248  -0.27782  -0.26682  -0.25131
 Alpha  occ. eigenvalues --   -0.22975  -0.22975  -0.20221  -0.19941
 Alpha virt. eigenvalues --   -0.08592  -0.08592  -0.04442  -0.02726   0.03243
 Alpha virt. eigenvalues --    0.03497   0.05389   0.05389   0.05709   0.05709
 Alpha virt. eigenvalues --    0.05789   0.06575   0.07151   0.07266   0.08212
 Alpha virt. eigenvalues --    0.08212   0.08430   0.09860   0.10347   0.10521
 Alpha virt. eigenvalues --    0.12312   0.12312   0.12606   0.12606   0.14339
 Alpha virt. eigenvalues --    0.17942   0.18838   0.18838   0.18989   0.20502
 Alpha virt. eigenvalues --    0.21119   0.22658   0.22658   0.23253   0.23478
 Alpha virt. eigenvalues --    0.24353   0.27144   0.27144   0.28634   0.30442
 Alpha virt. eigenvalues --    0.30655   0.30655   0.31290   0.31290   0.31403
 Alpha virt. eigenvalues --    0.34551   0.34920   0.34920   0.35845   0.37342
 Alpha virt. eigenvalues --    0.37593   0.37593   0.37954   0.38114   0.38442
 Alpha virt. eigenvalues --    0.38442   0.39331   0.39430   0.39612   0.39612
 Alpha virt. eigenvalues --    0.40029   0.41014   0.41048   0.41262   0.42275
 Alpha virt. eigenvalues --    0.42497   0.42497   0.42993   0.43503   0.43503
 Alpha virt. eigenvalues --    0.44348   0.44348   0.45093   0.47104   0.47302
 Alpha virt. eigenvalues --    0.47302   0.48851   0.49170   0.51250   0.51926
 Alpha virt. eigenvalues --    0.51956   0.51956   0.52389   0.52603   0.54360
 Alpha virt. eigenvalues --    0.54360   0.54805   0.55424   0.57352   0.57352
 Alpha virt. eigenvalues --    0.57429   0.58348   0.58348   0.60759   0.60759
 Alpha virt. eigenvalues --    0.60955   0.61307   0.61307   0.61993   0.62844
 Alpha virt. eigenvalues --    0.63840   0.64530   0.64530   0.65011   0.65599
 Alpha virt. eigenvalues --    0.67276   0.67905   0.67905   0.68246   0.71381
 Alpha virt. eigenvalues --    0.72030   0.72030   0.73067   0.73395   0.74167
[...]
 ,0.00000576,0.00000051,-0.00000214,0.00027861,0.,-0.00000001,-0.000019
 83,0.00000131,0.00000156,0.00006092,-0.00000752,0.00000253,0.00157216,
 0.00000109,-0.00000128,-0.00186442,0.00000120,0.00000549,0.00390729,-0
 .00006015,0.00008071,-0.05286592,0.00000018,0.00000043,0.00075056,-0.0
 0001871,0.00002219,0.00137876,-0.00000059,-0.00000599,0.00362253,-0.00
 000051,-0.00000171,0.00248331,-0.00000767,-0.00000266,0.00157215,0.000
 00112,0.00000126,-0.00185128,0.00000044,-0.00000768,0.00390504,0.00000
 046,0.00000174,0.00248639,0.00000015,-0.00000048,0.00075068,-0.0000007
 9,0.00000687,0.00361945,-0.00002049,-0.00002254,0.00138946,-0.00006552
 ,-0.00008719,-0.05288527,0.00032545,0.00000684,0.11465558,0.01171282,0
 .00976610,-0.00000862,-0.05743783,0.00573883,0.00000812,0.00091570,-0.
 00038854,0.00000033,-0.01434034,0.00633026,0.00000338,0.00015343,-0.00
 304282,0.00000190,0.00012535,-0.00001336,0.00000043,0.00201416,-0.0036
 4253,0.00000039,0.00070170,-0.00005807,-0.00000214,-0.05778965,-0.0057
 3045,0.00000753,0.01132819,-0.01036881,-0.00000904,0.00217336,0.003600
 13,0.00000056,0.00092492,0.00037053,0.00000035,0.00030866,0.00308460,0
 .00000208,0.00013443,0.00003151,0.00000042,-0.01469764,-0.00572648,0.0
 0000310,-0.00332518,0.00004832,0.,0.00013443,0.00003151,-0.00000043,0.
 00030866,0.00308459,-0.00000198,-0.01469755,-0.00572645,-0.00000366,0.
 00092492,0.00037053,-0.00000034,-0.05778962,-0.00573046,-0.00000800,0.
 01132816,-0.01036881,0.00000878,0.00217336,0.00360012,-0.00000038,-0.0
 0332518,0.00004833,0.00000003,0.00012535,-0.00001336,-0.00000044,0.000
 15344,-0.00304282,-0.00000211,0.00201416,-0.00364252,-0.00000056,0.000
 91570,-0.00038854,-0.00000035,0.01171281,0.00976611,0.00000922,-0.0574
 3781,0.00573885,-0.00000813,-0.01434026,0.00633023,-0.00000321,0.00070
 165,-0.00005806,0.00000218,0.23433304,0.00572647,-0.01469761,0.0000031
 2,0.00573047,-0.05778963,0.00000698,-0.00003151,0.00013443,0.00000040,
 0.01036881,0.01132819,-0.00000851,-0.00360013,0.00217336,0.00000046,-0
 .00037053,0.00092492,0.00000034,-0.00308460,0.00030866,0.00000196,-0.0
 0004832,-0.00332519,-0.00000003,-0.00573885,-0.05743782,-0.00000894,-0
 .00633025,-0.01434033,-0.00000360,0.00304282,0.00015344,-0.00000199,0.
 00001336,0.00012535,-0.00000045,0.00364253,0.00201417,-0.00000044,0.00
 038854,0.00091570,-0.00000033,-0.00976611,0.01171283,0.00000914,0.0000
 5807,0.00070167,-0.00000212,0.00038854,0.00091570,0.00000034,0.0036425
 2,0.00201416,0.00000051,-0.00976610,0.01171280,-0.00000870,0.00001336,
 0.00012535,0.00000042,-0.00573883,-0.05743782,0.00000731,-0.00633024,-
 0.01434027,0.00000299,0.00304282,0.00015343,0.00000203,0.00005806,0.00
 070168,0.00000219,-0.00037053,0.00092492,-0.00000035,-0.00360012,0.002
 17336,-0.00000048,-0.00308459,0.00030866,-0.00000210,-0.00003151,0.000
 13443,-0.00000044,0.00572647,-0.01469758,-0.00000365,0.00573045,-0.057
 78964,-0.00000855,0.01036880,0.01132816,0.00000931,-0.00004832,-0.0033
 2517,-0.00000006,0.,0.23433304,-0.00000506,0.00000339,-0.00191694,0.00
 000377,0.00000296,-0.02075664,0.00000003,0.00000055,0.00079511,0.00000
 383,-0.00000495,-0.00191572,0.00000175,0.00000081,0.00145817,0.0000005
 7,0.,0.00079497,0.00000081,0.00000175,0.00145969,0.00000044,0.00000003
 ,-0.00074443,0.00000345,-0.00000462,-0.02075662,-0.00000539,-0.0000040
 2,-0.00191571,0.00000091,-0.00000187,0.00145816,0.,-0.00000059,0.00079
 497,0.00000187,-0.00000083,0.00145969,0.00000058,-0.00000003,0.0007951
 1,0.00000341,0.00000546,-0.00191694,0.00000004,0.00000046,-0.00074443,
 -0.00000060,0.00000004,0.00079511,-0.00000176,0.00000090,0.00145969,-0
 .00000404,-0.00000505,-0.00191693,-0.00000001,0.00000059,0.00079496,-0
 .00000381,0.00000279,-0.02075666,0.00000520,0.00000353,-0.00191571,-0.
 00000074,0.00000185,0.00145816,0.00000005,-0.00000039,-0.00074443,-0.0
 0000062,0.,0.00079496,-0.00000197,-0.00000084,0.00145816,-0.00000092,-
 0.00000188,0.00145969,-0.00000003,-0.00000062,0.00079511,0.00000545,-0
 .00000407,-0.00191693,-0.00000365,-0.00000429,-0.02075665,-0.00000372,
 0.00000563,-0.00191570,-0.00000041,0.00000002,-0.00074442,0.00000057,0
 .00000324,0.08355569,0.00446587,-0.02988428,0.00001287,-0.00553013,-0.
 00094526,0.00000243,-0.00050291,0.00039123,0.00000001,0.00085399,-0.00
 169347,-0.00000006,0.00000115,0.00054503,-0.00000024,0.00001046,0.0000
 5243,-0.00000004,0.00032245,-0.00081629,0.00000006,-0.00062754,0.00006
 178,0.00000031,0.00001962,0.00002525,0.00000005,0.00009906,-0.00002258
 ,-0.00000003,-0.00005829,0.00000838,0.00000002,0.00000007,-0.00000164,
 0.,0.00001535,-0.00007978,-0.00000003,0.00000267,0.00000352,0.,0.00006
 418,0.00016953,-0.00000003,-0.05919844,-0.00354063,0.00000208,0.000009
 44,-0.00005218,0.00000005,-0.00000423,-0.00054075,0.00000028,0.0008798
 4,0.00165367,0.00000007,-0.00051024,-0.00038492,0.00000006,-0.00544766
 ,0.00110920,-0.00000216,0.00509921,0.02960083,-0.00001316,0.00033198,0
 .00086815,-0.00000024,-0.00012593,0.00000174,0.,0.00000275,-0.00000363
 ,0.,0.00001761,0.00008046,0.00000004,-0.00005953,-0.00000790,-0.000000
 03,0.00000017,0.00000144,0.,0.00010129,0.00001983,0.00000003,0.0000213
 9,-0.00002615,-0.00000005,0.00005729,-0.00017389,0.00000004,-0.0006213
 9,-0.00003868,-0.00000035,-0.00052306,0.00001110,0.,0.06099206,0.00203
 261,-0.01276332,0.00000498,-0.00231982,0.00140363,0.00000316,-0.000601
 26,0.00042262,0.00000027,0.00057843,-0.00077405,0.00000043,-0.00039126
 ,0.00014271,0.00000042,-0.00002033,0.00001981,0.00000015,0.00126536,0.
 00084733,-0.00000283,-0.00031889,0.00031329,-0.00000020,-0.00008547,-0
 .00001961,-0.00000004,-0.00006615,-0.00000602,0.,0.00003354,-0.0000358
 1,-0.00000003,-0.00000274,-0.00000849,0.,-0.00001454,0.00003597,0.0000
 0004,-0.00000695,-0.00000190,0.,0.00010768,-0.00010215,0.,-0.00339028,
 -0.33668322,0.00014644,0.00002093,0.00002050,0.00000015,0.00039696,0.0
 0014440,0.00000044,-0.00061674,-0.00079896,0.00000044,0.00061148,0.000
 41495,0.00000022,0.00248096,0.00132273,0.00000314,-0.00244672,-0.01346
 871,0.00000569,-0.00123729,0.00082663,-0.00000281,0.00000088,0.0000172
 3,0.,0.00000684,-0.00000198,0.,0.00001503,0.00003436,0.00000004,-0.000
 03346,-0.00003494,-0.00000003,0.00000254,-0.00000859,0.,0.00006477,-0.
 00000748,0.,0.00008406,-0.00002159,-0.00000003,-0.00011098,-0.00009622
 ,0.,0.00034045,0.00030689,-0.00000019,0.00001187,0.00045438,-0.0000000
 4,0.00360863,0.35827452,-0.00000251,0.00000674,0.00022797,0.00000326,0
 .00000204,0.00599875,0.00000049,-0.00000006,0.00029704,-0.00000059,0.0
 0000155,0.00122129,0.00000054,-0.00000109,0.00064291,0.00000021,0.0000
 0026,0.00030800,-0.00000110,-0.00000072,-0.00406526,-0.00000016,-0.000
 00071,-0.00073983,0.00000016,-0.00000011,-0.00012197,0.00000013,0.0000
 0016,0.00001811,-0.00000009,0.00000006,-0.00000414,0.,0.,0.00000858,0.
 00000006,-0.00000010,0.00005955,0.,0.,-0.00000219,-0.00000023,0.000000
 34,0.00015526,0.00000192,0.00014422,-0.03054583,-0.00000022,0.00000028
 ,0.00030829,-0.00000063,-0.00000096,0.00064323,0.00000055,0.00000146,0
 .00122008,-0.00000037,-0.00000007,0.00030792,-0.00000303,0.00000216,0.
 00599679,0.00000203,0.00000619,0.00024910,0.00000137,-0.00000087,-0.00
 408862,0.00000007,-0.00000013,-0.00001168,0.,0.00000001,-0.00000222,-0
 .00000007,-0.00000015,0.00005950,0.00000014,0.00000006,-0.00000412,0.,
 0.,0.00000856,-0.00000023,0.00000011,0.00001801,-0.00000012,-0.0000000
 7,-0.00012160,0.00000017,0.00000037,0.00015540,0.00000021,-0.00000072,
 -0.00074015,0.,-0.00000065,-0.00006314,-0.00000195,-0.00015966,0.02314
 508,-0.00010215,-0.00010768,-0.00000002,-0.00001961,0.00008547,0.00000
 004,-0.00000190,0.00000695,0.,-0.00000602,0.00006615,0.,-0.00003581,-0
 .00003354,0.00000003,-0.00000849,0.00000274,-0.00000001,0.00003597,0.0
 0001454,-0.00000004,0.00001723,-0.00000088,0.,-0.00002159,-0.00008406,
 0.00000004,-0.00009622,0.00011098,-0.00000001,0.00003436,-0.00001503,-
 0.00000004,-0.00000198,-0.00000684,0.,-0.00003494,0.00003346,0.0000000
 3,-0.00000859,-0.00000254,-0.00000001,-0.00000748,-0.00006477,0.,0.000
 31329,0.00031889,0.00000024,0.00042262,0.00060126,-0.00000025,0.000847
 33,-0.00126536,0.00000299,-0.01276333,-0.00203259,-0.00000549,0.000019
 81,0.00002033,-0.00000016,0.00140363,0.00231982,-0.00000327,-0.0007740
 5,-0.00057843,-0.00000050,0.00014271,0.00039126,-0.00000044,0.00030690
 ,-0.00034045,0.00000022,0.00041495,-0.00061148,-0.00000023,0.00082663,
 0.00123729,0.00000302,0.00014440,-0.00039696,-0.00000046,0.00002050,-0
 .00002093,-0.00000016,-0.00079897,0.00061674,-0.00000049,0.00132273,-0
 .00248096,-0.00000338,-0.01346872,0.00244670,-0.00000614,-0.33668315,0
 .00339029,-0.00015765,0.00045438,-0.00001187,0.00000006,-0.00007793,0.
 00004577,0.00000010,0.35827447,-0.00016953,0.00006418,-0.00000004,-0.0
 0002525,0.00001962,0.00000005,-0.00000352,0.00000267,0.,0.00002258,0.0
 0009906,-0.00000003,-0.00000838,-0.00005829,0.00000002,0.00000164,0.00
 000007,0.,0.00007978,0.00001535,-0.00000003,-0.00000174,-0.00012593,0.
 ,0.00002615,0.00002139,-0.00000005,0.00017389,0.00005729,0.00000004,-0
 .00008046,0.00001761,0.00000003,0.00000363,0.00000275,0.,0.00000790,-0
 .00005953,-0.00000003,-0.00000144,0.00000017,0.,-0.00001983,0.00010129
 ,0.00000003,-0.00006178,-0.00062754,0.00000033,-0.00039123,-0.00050291
 ,-0.00000002,0.00081629,0.00032245,0.00000020,0.02988422,0.00446588,0.
 00001411,-0.00005243,0.00001046,-0.00000005,0.00094526,-0.00553012,0.0
 0000218,0.00169347,0.00085398,-0.00000003,-0.00054502,0.00000115,-0.00
 000028,0.00003868,-0.00062139,-0.00000034,0.00038492,-0.00051024,0.000
 00006,-0.00086815,0.00033198,-0.00000015,0.00054075,-0.00000423,0.0000
 0028,0.00005218,0.00000944,0.00000004,-0.00165367,0.00087984,0.0000000
 1,-0.00110919,-0.00544766,-0.00000247,-0.02960080,0.00509921,-0.000014
 13,0.00354065,-0.05919839,0.00000147,-0.00001110,-0.00052306,0.,0.0001
 2665,-0.00008199,0.00000003,-0.00360863,0.06099200,-0.00000037,-0.0000
 0021,0.00015526,0.00000010,0.00000016,-0.00012198,0.,0.,-0.00000219,-0
 .00000014,0.00000018,0.00001811,-0.00000006,-0.00000011,-0.00000414,0.
 ,0.,0.00000858,0.00000013,0.00000006,0.00005955,0.00000013,0.,-0.00001
 168,0.00000009,-0.00000014,-0.00012161,-0.00000037,0.00000020,0.000155
 40,0.00000013,-0.00000006,0.00005950,0.,0.,-0.00000222,-0.00000006,0.0
 0000012,-0.00000412,0.,0.,0.00000856,-0.00000013,-0.00000019,0.0000180
 1,0.00000074,-0.00000017,-0.00073982,0.00000005,0.00000051,0.00029704,
 0.00000089,-0.00000109,-0.00406527,-0.00000648,-0.00000229,0.00022794,
 -0.00000028,0.00000022,0.00030800,-0.00000216,0.00000304,0.00599875,-0
 .00000158,-0.00000060,0.00122128,0.00000103,0.00000058,0.00064291,0.00
 000076,0.00000017,-0.00074015,0.00000009,-0.00000041,0.00030792,0.0000
 0103,0.00000146,-0.00408862,0.00000101,-0.00000064,0.00064323,-0.00000
 028,-0.00000023,0.00030829,-0.00000160,0.00000060,0.00122008,-0.000002
 31,-0.00000340,0.00599679,-0.00000734,0.00000243,0.00024908,-0.0001555
 6,0.00000100,-0.03054577,0.00000067,-0.00000001,-0.00006314,-0.0000000
 3,-0.00000009,-0.00026693,0.00017192,-0.00000119,0.02314509,0.00010129
 ,0.00001983,-0.00000003,0.00002139,-0.00002615,0.00000005,0.00000017,0
 .00000144,0.,0.00005729,-0.00017390,-0.00000005,0.00001761,0.00008046,
 -0.00000003,0.00000275,-0.00000363,0.,-0.00005953,-0.00000790,0.000000
 02,-0.00062139,-0.00003868,0.00000033,-0.00544767,0.00110920,0.0000021
 5,0.00509921,0.02960086,0.00001460,0.00033198,0.00086815,0.00000028,-0
 .00051024,-0.00038492,-0.00000007,-0.00000423,-0.00054075,-0.00000030,
 0.00000944,-0.00005218,-0.00000005,0.00087985,0.00165367,0.00000003,-0
 .00012593,0.00000174,0.,0.00000267,0.00000352,0.,0.00001535,-0.0000797
 8,0.00000003,0.00006418,0.00016953,0.00000004,0.00000007,-0.00000164,0
 .,0.00001962,0.00002525,-0.00000005,0.00009906,-0.00002258,0.00000003,
 -0.00005829,0.00000838,-0.00000002,-0.05919846,-0.00354065,-0.00000233
 ,0.00001046,0.00005243,0.00000004,0.00000115,0.00054503,0.00000027,0.0
 0032245,-0.00081630,-0.00000009,-0.00050291,0.00039123,0.,0.00446588,-
 0.02988428,-0.00001436,-0.00553013,-0.00094526,-0.00000251,0.00085399,
 -0.00169347,-0.00000001,-0.00062754,0.00006178,-0.00000032,-0.00052306
 ,0.00001110,0.,0.00000137,-0.00000013,0.,-0.00008199,-0.00012665,-0.00
 000002,0.06099208,0.00006477,-0.00000748,0.,0.00008406,-0.00002159,0.0
 0000004,0.00000254,-0.00000859,-0.00000001,-0.00011098,-0.00009622,-0.
 00000002,0.00001503,0.00003436,-0.00000004,0.00000684,-0.00000198,0.,-
 0.00003346,-0.00003494,0.00000003,0.00034045,0.00030689,0.00000025,0.0
 0248096,0.00132273,-0.00000334,-0.00244673,-0.01346871,-0.00000639,-0.
 00123729,0.00082663,0.00000303,0.00061148,0.00041495,-0.00000021,0.000
 39696,0.00014440,-0.00000045,0.00002093,0.00002050,-0.00000017,-0.0006
 1674,-0.00079896,-0.00000055,0.00000088,0.00001723,0.,-0.00000695,-0.0
 0000190,0.,-0.00001454,0.00003597,-0.00000004,0.00010768,-0.00010215,-
 0.00000002,-0.00000274,-0.00000849,-0.00000001,-0.00008547,-0.00001961
 ,0.00000004,-0.00006615,-0.00000602,0.,0.00003354,-0.00003581,0.000000
 03,-0.00339028,-0.33668323,-0.00016116,-0.00002033,0.00001981,-0.00000
 016,-0.00039126,0.00014272,-0.00000046,0.00126536,0.00084733,0.0000030
 9,-0.00060126,0.00042262,-0.00000026,0.00203261,-0.01276331,-0.0000055
 9,-0.00231982,0.00140363,-0.00000338,0.00057843,-0.00077405,-0.0000005
 2,-0.00031889,0.00031329,0.00000024,0.00001187,0.00045438,0.00000007,-
 0.00000013,-0.00000900,0.,-0.00004577,-0.00007793,0.00000010,0.0036086
 2,0.35827452,0.00000017,-0.00000014,0.00001801,0.00000016,0.00000010,-
 0.00012162,0.,0.,0.00000856,-0.00000022,-0.00000036,0.00015540,0.00000
 006,0.00000012,0.00005950,0.,0.,-0.00000222,-0.00000011,-0.00000006,-0
 .00000412,-0.00000015,0.00000078,-0.00074015,0.00000312,-0.00000236,0.
 00599679,-0.00000241,-0.00000671,0.00024911,-0.00000133,0.00000113,-0.
 00408862,0.00000040,0.00000009,0.00030792,0.00000059,0.00000099,0.0006
 4323,0.00000021,-0.00000028,0.00030829,-0.00000061,-0.00000158,0.00122
 008,0.00000002,0.00000013,-0.00001168,0.,-0.00000001,-0.00000219,-0.00
 000006,0.00000014,0.00005955,0.00000019,-0.00000038,0.00015526,0.,0.,0
 .00000858,-0.00000014,0.00000009,-0.00012197,-0.00000020,-0.00000013,0
 .00001811,0.00000012,-0.00000007,-0.00000414,-0.00000167,-0.00015898,-
 0.03054586,-0.00000023,-0.00000028,0.00030800,-0.00000061,0.00000100,0
 .00064291,0.00000125,0.00000093,-0.00406526,-0.00000053,0.00000006,0.0
 0029704,0.00000229,-0.00000751,0.00022797,-0.00000337,-0.00000226,0.00
 599876,0.00000056,-0.00000164,0.00122129,0.00000018,0.00000077,-0.0007
 3983,0.,0.00000067,-0.00006314,0.,0.,-0.00000479,0.00000010,-0.0000000
 2,-0.00026693,0.00000233,0.00017578,0.02314509,-0.00079896,0.00061674,
 0.00000049,0.00132273,-0.00248097,0.00000310,0.00002050,-0.00002093,0.
 00000015,-0.01346870,0.00244674,0.00000594,0.00082663,0.00123729,-0.00
 000282,0.00041495,-0.00061148,0.00000020,0.00014440,-0.00039696,0.0000
 0043,-0.33668330,0.00339028,0.00014995,0.00140363,0.00231983,0.0000032
 6,-0.00077405,-0.00057843,0.00000044,0.00014271,0.00039126,0.00000044,
 0.00001981,0.00002033,0.00000015,0.00084733,-0.00126536,-0.00000293,0.
 00042262,0.00060126,0.00000029,-0.01276331,-0.00203263,0.00000508,0.00
 030689,-0.00034045,-0.00000021,-0.00000859,-0.00000254,0.,-0.00003494,
 0.00003346,-0.00000003,-0.00000748,-0.00006477,0.,-0.00000198,-0.00000
 684,0.,-0.00002159,-0.00008406,-0.00000004,-0.00009622,0.00011098,0.00
 000002,0.00003436,-0.00001502,0.00000004,0.00031329,0.00031889,-0.0000
 0020,-0.00000849,0.00000274,0.00000001,-0.00003581,-0.00003354,-0.0000
 0003,0.00003597,0.00001454,0.00000004,-0.00000190,0.00000695,0.,-0.000
 10215,-0.00010768,0.,-0.00001961,0.00008547,-0.00000003,-0.00000602,0.
 00006615,0.,0.00001723,-0.00000088,0.,0.00045438,-0.00001187,-0.000000
 05,-0.00008199,-0.00004577,-0.00000010,-0.00000900,0.00000013,0.,-0.00
 007793,0.00004577,-0.00000009,0.35827457,-0.00165367,0.00087985,-0.000
 00003,-0.00110920,-0.00544767,0.00000185,0.00005218,0.00000944,-0.0000
 0006,-0.02960090,0.00509921,0.00001363,-0.00086815,0.00033198,0.000000
 36,0.00038492,-0.00051024,-0.00000007,0.00054075,-0.00000423,-0.000000
 31,0.00354064,-0.05919851,-0.00000293,0.00094527,-0.00553013,-0.000002
 75,0.00169347,0.00085399,0.00000002,-0.00054503,0.00000115,0.00000023,
 -0.00005243,0.00001046,0.00000004,0.00081630,0.00032245,0.00000005,-0.
 00039123,-0.00050291,-0.00000003,0.02988433,0.00446588,-0.00001312,0.0
 0003868,-0.00062139,0.00000035,-0.00000144,0.00000017,0.,0.00000790,-0
 .00005953,0.00000002,-0.00001983,0.00010129,-0.00000003,0.00000363,0.0
 0000275,0.,0.00002615,0.00002139,0.00000006,0.00017390,0.00005729,-0.0
 0000004,-0.00008046,0.00001761,-0.00000003,-0.00006178,-0.00062754,-0.
 00000031,0.00000164,0.00000007,0.,-0.00000838,-0.00005829,-0.00000002,
 0.00007978,0.00001535,0.00000003,-0.00000352,0.00000267,0.,-0.00016953
 ,0.00006418,0.00000003,-0.00002525,0.00001962,-0.00000004,0.00002258,0
 .00009906,0.00000003,-0.00000174,-0.00012593,0.,-0.00001110,-0.0005230
 6,-0.00000001,-0.00012665,-0.00007793,0.00000003,0.00000013,0.00000137
 ,0.,0.00012665,-0.00008199,-0.00000002,-0.00360862,0.06099214,0.000001
 44,-0.00000056,0.00122009,0.00000220,0.00000275,0.00599680,0.00000027,
 0.00000020,0.00030829,0.00000557,-0.00000202,0.00024913,-0.00000097,-0
 .00000124,-0.00408861,-0.00000007,0.00000036,0.00030792,-0.00000094,0.
 00000058,0.00064323,0.00014764,-0.00000259,-0.03054592,0.00000213,-0.0
 0000358,0.00599877,0.00000161,0.00000055,0.00122129,-0.00000106,-0.000
 00057,0.00064291,0.00000026,-0.00000022,0.00030800,-0.00000076,0.00000
 127,-0.00406526,-0.00000007,-0.00000052,0.00029704,0.00000777,0.000002
 51,0.00022799,-0.00000073,-0.00000018,-0.00074015,0.,0.,0.00000856,0.0
 0000006,-0.00000013,-0.00000412,0.00000012,0.00000021,0.00001801,0.000
 00001,0.,-0.00000222,-0.00000008,0.00000014,-0.00012161,0.00000037,-0.
 00000019,0.00015540,-0.00000014,0.00000006,0.00005950,-0.00000073,0.00
 000017,-0.00073983,0.,0.,0.00000858,0.00000006,0.00000010,-0.00000414,
 -0.00000011,-0.00000006,0.00005955,0.,0.,-0.00000219,0.00000034,0.0000
 0021,0.00015526,-0.00000010,-0.00000015,-0.00012197,0.00000015,-0.0000
 0015,0.00001811,-0.00000013,-0.00000004,-0.00001168,-0.00000065,-0.000
 00001,-0.00006314,0.00000002,-0.00000009,-0.00026693,0.,0.,-0.00000479
 ,0.00000003,0.00000010,-0.00026693,-0.00016351,0.00000309,0.02314508\\
 0.00001461,-0.00003311,-0.00001087,-0.00003407,-0.00000608,0.00000038,
 -0.00000658,-0.00000109,0.00000220,0.00000907,-0.00001458,0.00001055,-
 0.00002050,-0.00001058,-0.00001746,0.00000267,-0.00000105,-0.00000225,
 0.00001882,0.00003506,0.00001736,-0.00003768,0.00000306,0.00000264,0.0
 0000600,-0.00003402,-0.00000024,0.00001457,0.00000910,-0.00001098,0.00
 001055,-0.00002049,0.00001762,0.00000106,0.00000266,0.00000226,-0.0000
 3505,0.00001885,-0.00001738,0.00000111,-0.00000658,-0.00000219,0.00003
 310,0.00001463,0.00001107,0.00000304,0.00003773,-0.00000308,-0.0000010
 6,0.00000658,-0.00000283,0.00003509,-0.00001886,-0.00001977,-0.0000330
 6,-0.00001453,0.00001280,-0.00000105,-0.00000264,0.00000301,-0.0000062
 0,0.00003394,-0.00000031,-0.00001450,-0.00000903,-0.00001253,-0.000010
 61,0.00002053,0.00001965,-0.00000310,-0.00003772,-0.00000283,-0.000002
 63,0.00000106,-0.00000302,0.00002053,0.00001058,-0.00001981,-0.0000188
 8,-0.00003509,0.00001978,0.00000658,0.00000109,0.00000282,-0.00001456,
 0.00003305,-0.00001300,0.00003389,0.00000612,0.00000016,-0.00000905,0.
 00001450,0.00001296,0.00003777,-0.00000307,0.00000327,0.00000002,0.,0.
 ,-0.00000393,-0.00002100,0.00000089,-0.00002097,0.00000394,-0.00000095
 ,0.00000394,0.00002101,0.00000086,0.00002104,-0.00000394,-0.00000079\\
 \@


 IN THE UNIVERSE THE DIFFICULT THINGS ARE DONE AS IF THEY WERE EASY.

                                                          -- LAO-TSU
 Job cpu time:       0 days  6 hours 16 minutes 30.5 seconds.
 File lengths (MBytes):  RWF=   1978 Int=      0 D2E=      0 Chk=     27 Scr=      1
 Normal termination of Gaussian 09 at Sun Jul  5 16:31:38 2020.
