 Entering Gaussian System, Link 0=g09
 Input=1_intermediate_scan004_TS_irc.com
 Output=1_intermediate_scan004_TS_irc.log
 Initial command:
 /usr/public/gaussian/g09.D01/l1.exe "/gsfs1/data1/xuhq/Gau-119461.inp" -scrdir="/gsfs1/data1/xuhq/"
 Entering Link 1 = /usr/public/gaussian/g09.D01/l1.exe PID=    119462.
  
 Copyright (c) 1988,1990,1992,1993,1995,1998,2003,2009,2013,
            Gaussian, Inc.  All Rights Reserved.
  
 This is part of the Gaussian(R) 09 program.  It is based on
 the Gaussian(R) 03 system (copyright 2003, Gaussian, Inc.),
 the Gaussian(R) 98 system (copyright 1998, Gaussian, Inc.),
 the Gaussian(R) 94 system (copyright 1995, Gaussian, Inc.),
 the Gaussian 92(TM) system (copyright 1992, Gaussian, Inc.),
 the Gaussian 90(TM) system (copyright 1990, Gaussian, Inc.),
 the Gaussian 88(TM) system (copyright 1988, Gaussian, Inc.),
 the Gaussian 86(TM) system (copyright 1986, Carnegie Mellon
 University), and the Gaussian 82(TM) system (copyright 1983,
 Carnegie Mellon University). Gaussian is a federally registered
 trademark of Gaussian, Inc.
  
 This software contains proprietary and confidential information,
 including trade secrets, belonging to Gaussian, Inc.
  
 This software is provided under written license and may be
 used, copied, transmitted, or stored only in accord with that
 written license.
  
 The following legend is applicable only to US Government
 contracts under FAR:
  
                    RESTRICTED RIGHTS LEGEND
  
 Use, reproduction and disclosure by the US Government is
 subject to restrictions as set forth in subparagraphs (a)
 and (c) of the Commercial Computer Software - Restricted
 Rights clause in FAR 52.227-19.
  
 Gaussian, Inc.
 340 Quinnipiac St., Bldg. 40, Wallingford CT 06492
  
  
 ---------------------------------------------------------------
 Warning -- This program may not be used in any manner that
 competes with the business of Gaussian, Inc. or will provide
 assistance to any competitor of Gaussian, Inc.  The licensee
 of this program is prohibited from giving any competitor of
 Gaussian, Inc. access to this program.  By using this program,
 the user acknowledges that Gaussian, Inc. is engaged in the
 business of creating and licensing software in the field of
 computational chemistry and represents and warrants to the
 licensee that it is not a competitor of Gaussian, Inc. and that
 it will not use this program in any manner prohibited above.
 ---------------------------------------------------------------
  

 Cite this work as:
 Gaussian 09, Revision D.01,
 M. J. Frisch, G. W. Trucks, H. B. Schlegel, G. E. Scuseria, 
 M. A. Robb, J. R. Cheeseman, G. Scalmani, V. Barone, B. Mennucci, 
 G. A. Petersson, H. Nakatsuji, M. Caricato, X. Li, H. P. Hratchian, 
 A. F. Izmaylov, J. Bloino, G. Zheng, J. L. Sonnenberg, M. Hada, 
 M. Ehara, K. Toyota, R. Fukuda, J. Hasegawa, M. Ishida, T. Nakajima, 
 Y. Honda, O. Kitao, H. Nakai, T. Vreven, J. A. Montgomery, Jr., 
 J. E. Peralta, F. Ogliaro, M. Bearpark, J. J. Heyd, E. Brothers, 
 K. N. Kudin, V. N. Staroverov, T. Keith, R. Kobayashi, J. Normand, 
 K. Raghavachari, A. Rendell, J. C. Burant, S. S. Iyengar, J. Tomasi, 
 M. Cossi, N. Rega, J. M. Millam, M. Klene, J. E. Knox, J. B. Cross, 
 V. Bakken, C. Adamo, J. Jaramillo, R. Gomperts, R. E. Stratmann, 
 O. Yazyev, A. J. Austin, R. Cammi, C. Pomelli, J. W. Ochterski, 
 R. L. Martin, K. Morokuma, V. G. Zakrzewski, G. A. Voth, 
 P. Salvador, J. J. Dannenberg, S. Dapprich, A. D. Daniels, 
 O. Farkas, J. B. Foresman, J. V. Ortiz, J. Cioslowski, 
 and D. J. Fox, Gaussian, Inc., Wallingford CT, 2013.
 
 ******************************************
 Gaussian 09:  ES64L-G09RevD.01 24-Apr-2013
                 8-Jul-2020 
 ******************************************
 %mem=40gb
 %nprocshared=20
 Will use up to   20 processors via shared memory.
 %chk=1_intermediate_scan004_TS_irc.chk
 ----------------------------------------------------------------------
 #p b3lyp/gen irc=(calcall,MaxPoints=20,stepsize=10) nosym scf(converg=
 5)
 ----------------------------------------------------------------------
 1/10=4,14=-1,18=10,26=3,38=1,39=10,42=20,44=3,71=1/1,23;
 2/12=2,15=1,17=6,18=5,29=1,40=1/2;
 3/5=7,11=2,16=1,25=1,30=1,71=2,74=-5,140=1/1,2,3;
 4//1;
 5/5=2,6=5,38=5/2;
 8/6=4,10=90,11=11/1;
 11/6=1,8=1,9=11,15=111,16=1,31=1/1,2,10;
 10/6=1,13=1,31=1/2;
 6/7=2,8=2,9=2,10=2,18=1,28=1/1;
 7/10=1,25=1,30=1/1,2,3,16;
 1/10=4,14=-1,18=10,26=3,39=10,42=20,44=3,71=1/23(2);
 2/15=1,29=1/2;
 99/5=20/99;
 2/15=1,29=1/2;
 3/5=7,6=1,11=2,16=1,25=1,30=1,71=2,74=-5,82=7,140=1/1,2,3;
 4/5=5,16=3,69=1/1;
 5/5=2,6=5,38=5/2;
 8/6=4,10=90,11=11/1;
 11/6=1,8=1,9=11,15=111,16=1,31=1/1,2,10;
 10/6=1,13=1,31=1/2;
 7/10=1,25=1,30=1/1,2,3,16;
 1/10=4,14=-1,18=10,26=3,39=10,42=20,44=3,71=1/23(-8);
 2/15=1,29=1/2;
 6/7=2,8=2,9=2,10=2,18=1,19=2,28=1/1;
 99/5=20/99;
 Leave Link    1 at Wed Jul  8 09:46:50 2020, MaxMem=  5368709120 cpu:         6.8
 (Enter /usr/public/gaussian/g09.D01/l101.exe)
 -------
 comment
 -------
 Symbolic Z-matrix:
 Charge =  0 Multiplicity = 2
 C                    -0.04186   3.1065   -0.2821 
 N                    -0.67911   1.89253  -0.40495 
 H                    -0.74625   5.23163  -0.2634 
 C                    -2.01929   2.19157  -0.53364 
 C                    -2.22352   3.61609  -0.48082 
 H                    -3.18317   4.10665  -0.57086 
 C                    -0.99623   4.1816   -0.32814 
 C                    -3.03496   1.25328  -0.68062 
 N                    -1.62527  -0.75782  -0.66908 
 C                    -1.90643  -2.09831  -0.77974 
 C                    -3.32045  -2.30523  -0.95432 
 H                    -3.7919   -3.27096  -1.07247 
 C                    -3.90323  -1.07919  -0.94217 
 H                    -4.94982  -0.83043  -1.05256 
 C                    -2.84269  -0.11973  -0.76326 
 C                     1.32575   3.28077  -0.15564 
 H                     5.30266   0.98397   0.03814 
 C                     4.25445   1.23764  -0.03816 
 C                     3.18588   0.2807   -0.18821 
 H                     4.1549    3.43042   0.08687 
 N                     1.97671   0.92056  -0.26827 
 C                     2.25745   2.25854  -0.14759 
 C                     3.6788    2.46485  -0.01355 
 C                    -0.97124  -3.11689  -0.74651 
 H                     3.53811  -3.92834  -0.38278 
 C                     2.57307  -3.44521  -0.4474 
 C                     1.35138  -4.01399  -0.58734 
 H                     1.10064  -5.06301  -0.66095 
 C                     0.39319  -2.93484  -0.61521 
 N                     1.02828  -1.72536  -0.50743 
 C                     2.36112  -2.0187   -0.39018 
 C                     3.37426  -1.08878  -0.24502 
 Co                    0.18186   0.06276  -0.30946 
 H                     1.69458   4.29611  -0.06127 
 H                     4.38987  -1.45957  -0.16378 
 H                    -1.3357   -4.13445  -0.83033 
 H                    -4.04983   1.62412  -0.77601 
 O                     0.16275   0.03292   1.54923 
 Cl                   -0.80371  -1.36677   2.9261 
 Na                   -1.86821   0.73432   1.89029 
 
 NAtoms=     40 NQM=       40 NQMF=       0 NMMI=      0 NMMIF=      0
                NMic=       0 NMicF=      0.
                    Isotopes and Nuclear Properties:
 (Nuclear quadrupole moments (NQMom) in fm**2, nuclear magnetic moments (NMagM)
  in nuclear magnetons)

  Atom         1           2           3           4           5           6           7           8           9          10
 IAtWgt=          12          14           1          12          12           1          12          12          14          12
 AtmWgt=  12.0000000  14.0030740   1.0078250  12.0000000  12.0000000   1.0078250  12.0000000  12.0000000  14.0030740  12.0000000
 NucSpn=           0           2           1           0           0           1           0           0           2           0
 AtZEff=   0.0000000   0.0000000   0.0000000   0.0000000   0.0000000   0.0000000   0.0000000   0.0000000   0.0000000   0.0000000
 NQMom=    0.0000000   2.0440000   0.0000000   0.0000000   0.0000000   0.0000000   0.0000000   0.0000000   2.0440000   0.0000000
 NMagM=    0.0000000   0.4037610   2.7928460   0.0000000   0.0000000   2.7928460   0.0000000   0.0000000   0.4037610   0.0000000
 AtZNuc=   6.0000000   7.0000000   1.0000000   6.0000000   6.0000000   1.0000000   6.0000000   6.0000000   7.0000000   6.0000000

  Atom        11          12          13          14          15          16          17          18          19          20
 IAtWgt=          12           1          12           1          12          12           1          12          12           1
 AtmWgt=  12.0000000   1.0078250  12.0000000   1.0078250  12.0000000  12.0000000   1.0078250  12.0000000  12.0000000   1.0078250
 NucSpn=           0           1           0           1           0           0           1           0           0           1
 AtZEff=   0.0000000   0.0000000   0.0000000   0.0000000   0.0000000   0.0000000   0.0000000   0.0000000   0.0000000   0.0000000
 NQMom=    0.0000000   0.0000000   0.0000000   0.0000000   0.0000000   0.0000000   0.0000000   0.0000000   0.0000000   0.0000000
 NMagM=    0.0000000   2.7928460   0.0000000   2.7928460   0.0000000   0.0000000   2.7928460   0.0000000   0.0000000   2.7928460
 AtZNuc=   6.0000000   1.0000000   6.0000000   1.0000000   6.0000000   6.0000000   1.0000000   6.0000000   6.0000000   1.0000000

  Atom        21          22          23          24          25          26          27          28          29          30
 IAtWgt=          14          12          12          12           1          12          12           1          12          14
 AtmWgt=  14.0030740  12.0000000  12.0000000  12.0000000   1.0078250  12.0000000  12.0000000   1.0078250  12.0000000  14.0030740
 NucSpn=           2           0           0           0           1           0           0           1           0           2
 AtZEff=   0.0000000   0.0000000   0.0000000   0.0000000   0.0000000   0.0000000   0.0000000   0.0000000   0.0000000   0.0000000
 NQMom=    2.0440000   0.0000000   0.0000000   0.0000000   0.0000000   0.0000000   0.0000000   0.0000000   0.0000000   2.0440000
 NMagM=    0.4037610   0.0000000   0.0000000   0.0000000   2.7928460   0.0000000   0.0000000   2.7928460   0.0000000   0.4037610
 AtZNuc=   7.0000000   6.0000000   6.0000000   6.0000000   1.0000000   6.0000000   6.0000000   1.0000000   6.0000000   7.0000000

  Atom        31          32          33          34          35          36          37          38          39          40
 IAtWgt=          12          12          59           1           1           1           1          16          35          23
 AtmWgt=  12.0000000  12.0000000  58.9331978   1.0078250   1.0078250   1.0078250   1.0078250  15.9949146  34.9688527  22.9897697
 NucSpn=           0           0           7           1           1           1           1           0           3           3
 AtZEff=   0.0000000   0.0000000   0.0000000   0.0000000   0.0000000   0.0000000   0.0000000   0.0000000   0.0000000   0.0000000
 NQMom=    0.0000000   0.0000000  42.0000000   0.0000000   0.0000000   0.0000000   0.0000000   0.0000000  -8.1650000  10.4000000
 NMagM=    0.0000000   0.0000000   4.6270000   2.7928460   2.7928460   2.7928460   2.7928460   0.0000000   0.8218740   2.2175200
 AtZNuc=   6.0000000   6.0000000  27.0000000   1.0000000   1.0000000   1.0000000   1.0000000   8.0000000  17.0000000  11.0000000
 Leave Link  101 at Wed Jul  8 09:46:50 2020, MaxMem=  5368709120 cpu:        11.2
 (Enter /usr/public/gaussian/g09.D01/l123.exe)
 IRC-IRC-IRC-IRC-IRC-IRC-IRC-IRC-IRC-IRC-IRC-IRC-IRC-IRC-IRC-IRC-IRC-IRC
 ------------------------------------------------------------------------
 INPUT DATA FOR L123
 ------------------------------------------------------------------------
 GENERAL PARAMETERS:
 Follow reaction path in both directions.
 Maximum points per path      =  20
 Step size                    =   0.100 bohr
 Integration scheme           = HPC                                 
    Redo corrector integration= Yes                                 
    DWI Weight Power          =  2
    DWI will use Hessian update vectors when possible.
    Max correction cycles     =  20
 Initial Hessian              = CalcFC
 Hessian evaluation           = Analytic at all predictor steps
                              = Update at all corrector steps
 Hessian updating method      = Bofill                              
 ------------------------------------------------------------------------
 IRC-IRC-IRC-IRC-IRC-IRC-IRC-IRC-IRC-IRC-IRC-IRC-IRC-IRC-IRC-IRC-IRC-IRC
 Leave Link  123 at Wed Jul  8 09:46:51 2020, MaxMem=  5368709120 cpu:         1.1
 (Enter /usr/public/gaussian/g09.D01/l202.exe)
                          Input orientation:                          
 ---------------------------------------------------------------------
 Center     Atomic      Atomic             Coordinates (Angstroms)
 Number     Number       Type             X           Y           Z
 ---------------------------------------------------------------------
      1          6           0       -0.041863    3.106500   -0.282100
      2          7           0       -0.679112    1.892525   -0.404952
      3          1           0       -0.746250    5.231628   -0.263399
      4          6           0       -2.019292    2.191571   -0.533636
      5          6           0       -2.223522    3.616091   -0.480819
      6          1           0       -3.183174    4.106652   -0.570862
      7          6           0       -0.996225    4.181598   -0.328140
      8          6           0       -3.034959    1.253283   -0.680619
      9          7           0       -1.625267   -0.757820   -0.669083
     10          6           0       -1.906433   -2.098311   -0.779737
     11          6           0       -3.320448   -2.305227   -0.954320
     12          1           0       -3.791896   -3.270957   -1.072471
     13          6           0       -3.903228   -1.079186   -0.942168
     14          1           0       -4.949824   -0.830426   -1.052555
     15          6           0       -2.842691   -0.119727   -0.763255
     16          6           0        1.325746    3.280769   -0.155635
     17          1           0        5.302658    0.983966    0.038138
     18          6           0        4.254450    1.237637   -0.038157
     19          6           0        3.185875    0.280696   -0.188214
     20          1           0        4.154904    3.430420    0.086865
     21          7           0        1.976708    0.920561   -0.268270
     22          6           0        2.257453    2.258540   -0.147587
     23          6           0        3.678799    2.464851   -0.013552
     24          6           0       -0.971244   -3.116888   -0.746511
     25          1           0        3.538110   -3.928342   -0.382782
     26          6           0        2.573074   -3.445214   -0.447400
     27          6           0        1.351384   -4.013989   -0.587343
     28          1           0        1.100638   -5.063012   -0.660946
     29          6           0        0.393190   -2.934841   -0.615214
     30          7           0        1.028278   -1.725356   -0.507430
     31          6           0        2.361121   -2.018695   -0.390179
     32          6           0        3.374263   -1.088782   -0.245020
     33         27           0        0.181864    0.062762   -0.309461
     34          1           0        1.694579    4.296106   -0.061269
     35          1           0        4.389868   -1.459573   -0.163783
     36          1           0       -1.335700   -4.134450   -0.830327
     37          1           0       -4.049834    1.624118   -0.776013
     38          8           0        0.162747    0.032922    1.549230
     39         17           0       -0.803708   -1.366768    2.926096
     40         11           0       -1.868207    0.734324    1.890287
 ---------------------------------------------------------------------
                    Distance matrix (angstroms):
                    1          2          3          4          5
     1  C    0.000000
     2  N    1.376559   0.000000
     3  H    2.238901   3.342776   0.000000
     4  C    2.193306   1.379156   3.306903   0.000000
     5  C    2.249179   2.315521   2.199901   1.440054   0.000000
     6  H    3.309308   3.346672   2.701611   2.241326   1.081522
     7  C    1.438319   2.312210   1.081315   2.247021   1.359914
     8  C    3.542860   2.456550   4.608632   1.390528   2.506235
     9  N    4.194031   2.826536   6.067185   2.978676   4.418648
    10  C    5.551065   4.192082   7.439129   4.298417   5.730994
    11  C    6.363002   4.989948   7.994251   4.700125   6.040650
    12  H    7.440389   6.066016   9.067773   5.768161   7.088108
    13  C    5.732870   4.417532   7.088978   3.796573   5.007982
    14  H    6.338854   5.106156   7.418982   4.241434   5.247010
    15  C    4.299382   2.976342   5.769049   2.464307   3.797299
    16  C    1.384456   2.451293   2.847917   3.538152   3.579873
    17  H    5.759480   6.066579   7.397489   7.442861   7.990043
    18  C    4.691531   4.990336   6.403882   6.365165   6.914992
    19  C    4.290953   4.193220   6.322894   5.555585   6.361765
    20  H    4.225389   5.096540   5.233388   6.327754   6.406329
    21  N    2.975424   2.831391   5.099002   4.201655   4.995297
    22  C    2.454381   2.970457   4.227871   4.294656   4.693946
    23  C    3.785123   4.412725   5.224800   5.728299   6.031673
    24  C    6.309515   5.029535   8.365509   5.415114   6.853597
    25  H    7.894007   7.188042  10.113112   8.268060   9.493392
    26  C    7.056215   6.250598   9.291897   7.271218   8.536421
    27  C    7.261933   6.248447   9.486118   7.062104   8.426709
    28  H    8.257709   7.184187  10.466549   7.898047   9.295661
    29  C    6.066139   4.949495   8.253079   5.666288   7.055491
    30  N    4.954070   4.001843   7.183880   4.962931   6.253476
    31  C    5.661593   4.953875   7.889171   6.077412   7.264846
    32  C    5.410331   5.034245   7.544968   6.319371   7.316189
    33  Co   3.052072   2.024458   5.251732   3.070370   4.294344
    34  H    2.116403   3.395545   2.621775   4.294768   3.998745
    35  H    6.364217   6.081881   8.435746   7.385457   8.342650
    36  H    7.376037   6.077539   9.401717   6.369762   7.809050
    37  H    4.301771   3.401690   4.918391   2.122228   2.718550
    38  O    3.583646   2.825894   5.580183   3.709365   4.759672
    39  Cl   5.557253   4.662016   7.329052   5.109713   6.200954
    40  Na   3.698921   2.832578   5.111056   2.832278   3.748730
                    6          7          8          9         10
     6  H    0.000000
     7  C    2.201653   0.000000
     8  C    2.859323   3.585486   0.000000
     9  N    5.108797   4.990970   2.455993   0.000000
    10  C    6.338396   6.361578   3.537878   1.374123   0.000000
    11  C    6.424802   6.919033   3.580420   2.312892   1.439699
    12  H    7.419654   7.994397   4.603830   3.342583   2.239590
    13  C    5.248739   6.041816   2.502541   2.316670   2.247708
    14  H    5.265721   6.424648   2.854275   3.347387   3.308201
    15  C    4.244434   4.701081   1.388867   1.377734   2.188983
    16  C    4.602701   2.496558   4.837567   5.028152   6.306424
    17  H    9.062637   7.073538   8.372873   7.178449   7.882915
    18  C    7.989573   6.026656   7.317683   6.241073   7.045209
    19  C    7.439701   5.720715   6.315629   4.945386   5.651652
    20  H    7.398465   5.222129   7.551363   7.177965   8.249707
    21  N    6.071830   4.413194   5.039597   3.993975   4.945096
    22  C    5.761519   3.783804   5.413344   4.944280   6.059679
    23  C    7.077625   4.990194   6.854737   6.240869   7.252882
    24  C    7.556654   7.310510   4.833390   2.449274   1.383178
    25  H   10.477221   9.291626   8.375153   6.065859   5.757572
    26  C    9.496332   8.421543   7.319857   4.989719   4.689411
    27  C    9.300930   8.529132   6.855134   4.412456   3.784205
    28  H   10.121359   9.485273   7.549777   5.095616   4.224457
    29  C    7.897783   7.256486   5.412658   2.969258   2.452573
    30  N    7.193933   6.246828   5.041049   2.829056   2.970821
    31  C    8.263881   7.051188   6.317268   4.190332   4.286037
    32  C    8.372496   6.847261   6.837627   5.028386   5.402853
    33  Co   5.267339   4.284046   3.450080   2.017029   3.041773
    34  H    4.907958   2.706429   5.657817   6.077251   7.373741
    35  H    9.407419   7.801270   7.921790   6.076976   6.358521
    36  H    8.449630   8.338111   5.651333   3.392857   2.115220
    37  H    2.637454   4.008219   1.084707   3.400528   4.295423
    38  O    5.682011   4.698856   4.084952   2.956887   3.774619
    39  Cl   6.917290   6.435175   4.985132   3.737792   3.935017
    40  Na   4.377098   4.191118   2.870572   2.972522   3.892854
                   11         12         13         14         15
    11  C    0.000000
    12  H    1.081137   0.000000
    13  C    1.357555   2.198462   0.000000
    14  H    2.199899   2.701367   1.081402   0.000000
    15  C    2.245255   3.305579   1.441288   2.242498   0.000000
    16  C    7.309471   8.363968   6.853467   7.555737   5.413727
    17  H    9.282334  10.101917   9.485037  10.468764   8.258758
    18  C    8.412510   9.281213   8.528342   9.488127   7.262067
    19  C    7.043164   7.879431   7.257624   8.256590   6.069153
    20  H    9.479589  10.459644   9.291337  10.116776   7.892565
    21  N    6.239891   7.175817   6.247141   7.187343   4.955181
    22  C    7.252018   8.247749   7.051650   7.893385   5.660978
    23  C    8.522215   9.477979   8.420787   9.294703   7.054922
    24  C    2.494141   2.843601   3.575897   4.598986   3.533492
    25  H    7.071137   7.391672   7.987748   9.060392   7.440761
    26  C    6.024130   6.397962   6.912696   7.987323   6.363108
    27  C    4.988041   5.219270   6.029089   7.075077   5.725949
    28  H    5.218951   5.226634   6.402236   7.394338   6.324269
    29  C    3.781866   4.223388   4.691435   5.759134   4.291586
    30  N    4.409918   5.093352   4.992623   6.069247   4.198558
    31  C    5.716693   6.316114   6.358415   7.436440   5.552020
    32  C    6.841199   7.536604   7.310813   8.367155   6.313331
    33  Co   4.276611   5.242770   4.288629   5.261577   3.063848
    34  H    8.338203   9.401297   7.810582   8.450566   6.370179
    35  H    7.796733   8.429003   8.338226   9.402956   7.380004
    36  H    2.701973   2.614795   3.992411   4.901821   4.288767
    37  H    4.000444   4.910823   2.712370   2.628924   2.120932
    38  O    4.885422   5.781707   4.896529   5.801124   3.795200
    39  Cl   4.719355   5.342634   4.965198   5.771274   4.395893
    40  Na   4.409043   5.340486   3.931022   4.539287   2.953017
                   16         17         18         19         20
    16  C    0.000000
    17  H    4.596595   0.000000
    18  C    3.572884   1.081161   0.000000
    19  C    3.530096   2.242007   1.442257   0.000000
    20  H    2.843473   2.702749   2.198599   3.306879   0.000000
    21  N    2.450922   3.340636   2.311190   1.370373   3.342163
    22  C    1.383147   3.306404   2.245488   2.185288   2.242452
    23  C    2.494548   2.198320   1.355741   2.245888   1.081241
    24  C    6.823145   7.536214   6.838971   5.397862   8.356982
    25  H    7.544364   5.236561   5.226782   4.228230   7.399485
    26  C    6.846883   5.225324   4.992354   3.784852   7.075448
    27  C    7.307566   6.401824   6.025693   4.687108   7.983327
    28  H    8.362099   7.396731   7.073371   5.755598   9.056829
    29  C    6.301959   6.315599   5.714184   4.280315   7.426975
    30  N    5.027279   5.090029   4.405421   2.963337   6.058961
    31  C    5.404751   4.225171   3.783162   2.451165   5.756569
    32  C    4.826737   2.845201   2.495946   1.383541   4.598123
    33  Co   3.418727   5.214592   4.247340   3.014345   5.223336
    34  H    1.084367   4.898815   3.988447   4.285277   2.612385
    35  H    5.644444   2.616265   2.703528   2.116302   4.902047
    36  H    7.907210   8.427349   7.793371   6.352201   9.392296
    37  H    5.659171   9.409662   8.345953   7.382803   8.445414
    38  O    3.848070   5.441192   4.551172   3.495627   5.442318
    39  Cl   5.969191   7.152199   6.415192   5.322578   7.460702
    40  Na   4.568535   7.410404   6.438878   5.483584   6.840989
                   21         22         23         24         25
    21  N    0.000000
    22  C    1.372432   0.000000
    23  C    2.312321   1.442482   0.000000
    24  C    5.021965   6.299081   7.301776   0.000000
    25  H    5.095385   6.322413   6.405392   4.596197   0.000000
    26  C    4.409958   5.720342   6.028244   3.572038   1.081149
    27  C    4.984237   6.352871   6.908072   2.494940   2.197942
    28  H    6.060102   7.430133   7.983405   2.843838   2.702984
    29  C    4.182347   5.537631   6.349323   1.382773   3.306296
    30  N    2.820921   4.184709   4.982671   2.447776   3.341847
    31  C    2.966793   4.285363   4.688316   3.526706   2.243236
    32  C    2.447685   3.530060   3.574161   4.821632   2.847617
    33  Co   1.989719   3.025841   4.252781   3.410402   5.215235
    34  H    3.393634   2.115645   2.700537   7.907506   8.434662
    35  H    3.391061   4.286236   3.991152   5.641612   2.620739
    36  H    6.069686   7.365270   8.328451   1.084106   4.898653
    37  H    6.088678   6.370187   7.811527   5.652939   9.410703
    38  O    2.716922   3.495763   4.551833   4.059269   5.551338
    39  Cl   4.813165   5.653414   6.589059   4.071736   6.030068
    40  Na   4.413323   4.847395   6.114622   4.752797   7.492367
                   26         27         28         29         30
    26  C    0.000000
    27  C    1.354849   0.000000
    28  H    2.197940   1.081083   0.000000
    29  C    2.245114   1.443424   2.243142   0.000000
    30  N    2.312555   2.312709   3.341968   1.370331   0.000000
    31  C    1.443314   2.244914   3.306055   2.182365   1.369769
    32  C    2.497125   3.572962   4.597485   3.525872   2.444940
    33  Co   4.247683   4.250282   5.219315   3.020557   1.988209
    34  H    7.800570   8.333800   9.397099   7.367975   6.074621
    35  H    2.706280   3.992096   4.904180   4.284115   3.389546
    36  H    3.987505   2.700736   2.612788   2.115277   3.390632
    37  H    8.346797   7.810058   8.441464   6.367922   6.089198
    38  O    4.679064   4.728138   5.633211   3.680426   2.840869
    39  Cl   5.206061   4.898618   5.491414   4.053677   3.908178
    40  Na   6.531332   6.249071   6.995137   4.985401   4.493183
                   31         32         33         34         35
    31  C    0.000000
    32  C    1.382847   0.000000
    33  Co   3.014654   3.394351   0.000000
    34  H    6.358394   5.643768   4.502345   0.000000
    35  H    2.116527   1.084223   4.477279   6.356330   0.000000
    36  H    4.282130   5.639364   4.493427   8.991569   6.354634
    37  H    7.383718   7.922058   4.534619   6.375630   9.006250
    38  O    3.578168   3.845957   1.859029   4.807801   4.799011
    39  Cl   4.630209   5.252494   3.672021   6.872694   6.043939
    40  Na   5.537766   5.946994   3.081019   5.402620   6.942326
                   36         37         38         39         40
    36  H    0.000000
    37  H    6.366363   0.000000
    38  O    5.027387   5.067988   0.000000
    39  Cl   4.696147   5.760933   2.188362   0.000000
    40  Na   5.602702   3.558144   2.175559   2.573062   0.000000
 Symmetry turned off by external request.
 Stoichiometry    C20H12ClCoN4NaO(2)
 Framework group  C1[X(C20H12ClCoN4NaO)]
 Deg. of freedom   114
 Full point group                 C1      NOp   1
 Rotational constants (GHZ):      0.2066170      0.2045441      0.1299627
 Leave Link  202 at Wed Jul  8 09:46:52 2020, MaxMem=  5368709120 cpu:        19.6
 (Enter /usr/public/gaussian/g09.D01/l301.exe)
 General basis read from cards:  (5D, 7F)
 Centers:       1      4      5      7      8     10     11     13     15     16
 Centers:      18     19     22     23     24     26     27     29     31     32
 Centers:       2      9     21     30     39     40     38      3      6     12
 Centers:      14     17     20     25     28     34     35     36     37
 6-311G*
 ****
 Centers:      33
 def2svp
 ****
 Ernie: Thresh=  0.10000D-02 Tol=  0.10000D-05 Strict=F.
   569 basis functions,  1036 primitive gaussians,   601 cartesian basis functions
   112 alpha electrons      111 beta electrons
       nuclear repulsion energy      3490.3774141819 Hartrees.
 IExCor=  402 DFT=T Ex+Corr=B3LYP ExCW=0 ScaHFX=  0.200000
 ScaDFX=  0.800000  0.720000  1.000000  0.810000 ScalE2=  1.000000  1.000000
 IRadAn=      0 IRanWt=     -1 IRanGd=            0 ICorTp=0 IEmpDi=  4
 NAtoms=   40 NActive=   40 NUniq=   40 SFac= 1.00D+00 NAtFMM=   60 NAOKFM=F Big=F
 Integral buffers will be    131072 words long.
 Raffenetti 2 integral format.
 Two-electron integral symmetry is turned off.
 Leave Link  301 at Wed Jul  8 09:46:53 2020, MaxMem=  5368709120 cpu:         6.5
 (Enter /usr/public/gaussian/g09.D01/l302.exe)
 NPDir=0 NMtPBC=     1 NCelOv=     1 NCel=       1 NClECP=     1 NCelD=      1
         NCelK=      1 NCelE2=     1 NClLst=     1 CellRange=     0.0.
 One-electron integrals computed using PRISM.
 NBasis=   569 RedAO= T EigKep=  1.43D-04  NBF=   569
 NBsUse=   569 1.00D-06 EigRej= -1.00D+00 NBFU=   569
 Precomputing XC quadrature grid using
 IXCGrd= 4 IRadAn=           0 IRanWt=          -1 IRanGd=           0 AccXCQ= 0.00D+00.
 Generated NRdTot=       0 NPtTot=           0 NUsed=           0 NTot=          32
 NSgBfM=   593   593   594   594   594 MxSgAt=    40 MxSgA2=    40.
 Leave Link  302 at Wed Jul  8 09:46:55 2020, MaxMem=  5368709120 cpu:        32.1
 (Enter /usr/public/gaussian/g09.D01/l303.exe)
 DipDrv:  MaxL=1.
 Leave Link  303 at Wed Jul  8 09:46:56 2020, MaxMem=  5368709120 cpu:         5.5
 (Enter /usr/public/gaussian/g09.D01/l401.exe)
 ExpMin= 1.63D-02 ExpMax= 1.06D+05 ExpMxC= 9.90D+03 IAcc=3 IRadAn=         5 AccDes= 0.00D+00
 Harris functional with IExCor=  402 and IRadAn=       5 diagonalized for initial guess.
 HarFok:  IExCor=  402 AccDes= 0.00D+00 IRadAn=         5 IDoV= 1 UseB2=F ITyADJ=14
 ICtDFT=  3500011 ScaDFX=  1.000000  1.000000  1.000000  1.000000
 FoFCou: FMM=F IPFlag=           0 FMFlag=      100000 FMFlg1=           0
         NFxFlg=           0 DoJE=T BraDBF=F KetDBF=T FulRan=T
         wScrn=  0.000000 ICntrl=     500 IOpCl=  0 I1Cent=   200000004 NGrid=           0
         NMat0=    1 NMatS0=      1 NMatT0=    0 NMatD0=    1 NMtDS0=    0 NMtDT0=    0
 Symmetry not used in FoFCou.
 Harris En= -3068.96132002102    
 JPrj=0 DoOrth=F DoCkMO=F.
 Initial guess <Sx>= 0.0000 <Sy>= 0.0000 <Sz>= 0.5000 <S**2>= 0.7500 S= 0.5000
 Leave Link  401 at Wed Jul  8 09:47:00 2020, MaxMem=  5368709120 cpu:        76.9
 (Enter /usr/public/gaussian/g09.D01/l502.exe)
 UHF open shell SCF:
 Using DIIS extrapolation, IDIIS=  1040.
 Two-electron integral symmetry not used.
 IVT=     1117859 IEndB=     1117859 NGot=  5368709120 MDV=  5367969704
 LenX=  5367969704 LenY=  5367607902
 Requested convergence on RMS density matrix=1.00D-05 within 128 cycles.
 Requested convergence on MAX density matrix=1.00D-03.
 Requested convergence on             energy=1.00D-03.
 No special actions if energy rises.
 Fock matrices will be formed incrementally for  20 cycles.

 Cycle   1  Pass 1  IDiag  1:
 FoFJK:  IHMeth= 1 ICntrl=       0 DoSepK=F KAlg= 0 I1Cent=   0 FoldK=F
 IRaf= 730000000 NMat=   1 IRICut=       1 DoRegI=T DoRafI=F ISym2E= 0.
 FoFCou: FMM=F IPFlag=           0 FMFlag=      100000 FMFlg1=           0
         NFxFlg=           0 DoJE=F BraDBF=F KetDBF=F FulRan=T
         wScrn=  0.000000 ICntrl=       0 IOpCl=  1 I1Cent=           0 NGrid=           0
         NMat0=    1 NMatS0=      1 NMatT0=    0 NMatD0=    1 NMtDS0=    0 NMtDT0=    0
 Symmetry not used in FoFCou.
 E= -3068.10752248323    
 DIIS: error= 4.65D-02 at cycle   1 NSaved=   1.
 NSaved= 1 IEnMin= 1 EnMin= -3068.10752248323     IErMin= 1 ErrMin= 4.65D-02
 ErrMax= 4.65D-02  0.00D+00 EMaxC= 1.00D-01 BMatC= 5.49D+00 BMatP= 5.49D+00
 IDIUse=3 WtCom= 5.35D-01 WtEn= 4.65D-01
 Coeff-Com:  0.100D+01
 Coeff-En:   0.100D+01
 Coeff:      0.100D+01
 Gap=     0.250 Goal=   None    Shift=    0.000
 Gap=     0.329 Goal=   None    Shift=    0.000
 GapD=    0.250 DampG=1.000 DampE=0.250 DampFc=0.2500 IDamp=-1.
 Damping current iteration by 2.50D-01
 RMSDP=5.20D-03 MaxDP=6.54D-01              OVMax= 8.89D-01

 Cycle   2  Pass 1  IDiag  1:
 RMSU=  1.29D-03    CP:  9.90D-01
 E= -3068.30604360284     Delta-E=       -0.198521119602 Rises=F Damp=T
 DIIS: error= 1.57D-02 at cycle   2 NSaved=   2.
 NSaved= 2 IEnMin= 2 EnMin= -3068.30604360284     IErMin= 2 ErrMin= 1.57D-02
 ErrMax= 1.57D-02  0.00D+00 EMaxC= 1.00D-01 BMatC= 1.04D+00 BMatP= 5.49D+00
 IDIUse=3 WtCom= 8.43D-01 WtEn= 1.57D-01
 Coeff-Com:  0.104D+00 0.896D+00
 Coeff-En:   0.384D+00 0.616D+00
 Coeff:      0.148D+00 0.852D+00
 Gap=     0.057 Goal=   None    Shift=    0.000
 Gap=     0.084 Goal=   None    Shift=    0.000
 RMSDP=2.08D-03 MaxDP=2.25D-01 DE=-1.99D-01 OVMax= 8.11D-01

 Cycle   3  Pass 1  IDiag  1:
 RMSU=  1.93D-03    CP:  9.81D-01  4.18D-01
 E= -3068.10655450043     Delta-E=        0.199489102408 Rises=F Damp=F
 DIIS: error= 4.69D-02 at cycle   3 NSaved=   3.
 NSaved= 3 IEnMin= 2 EnMin= -3068.30604360284     IErMin= 2 ErrMin= 1.57D-02
 ErrMax= 4.69D-02  0.00D+00 EMaxC= 1.00D-01 BMatC= 4.06D+00 BMatP= 1.04D+00
 IDIUse=2 WtCom= 0.00D+00 WtEn= 1.00D+00
 Coeff-En:   0.000D+00 0.567D+00 0.433D+00
 Coeff:      0.000D+00 0.567D+00 0.433D+00
 Gap=     0.038 Goal=   None    Shift=    0.000
 Gap=     0.017 Goal=   None    Shift=    0.000
 RMSDP=3.25D-03 MaxDP=4.53D-01 DE= 1.99D-01 OVMax= 9.83D-01

 Cycle   4  Pass 1  IDiag  1:
 RMSU=  2.02D-03    CP:  9.67D-01  1.86D+00  1.03D-01
 E= -3064.69944202534     Delta-E=        3.407112475084 Rises=F Damp=F
 DIIS: error= 1.02D-01 at cycle   4 NSaved=   4.
 NSaved= 4 IEnMin= 2 EnMin= -3068.30604360284     IErMin= 2 ErrMin= 1.57D-02
 ErrMax= 1.02D-01  0.00D+00 EMaxC= 1.00D-01 BMatC= 1.87D+01 BMatP= 1.04D+00
 IDIUse=2 WtCom= 0.00D+00 WtEn= 1.00D+00
 EnCoef did     5 forward-backward iterations
 Coeff-En:   0.185D+00 0.000D+00 0.552D+00 0.263D+00
 Coeff:      0.185D+00 0.000D+00 0.552D+00 0.263D+00
 Gap=     0.039 Goal=   None    Shift=    0.000
 Gap=    -0.071 Goal=   None    Shift=    0.000
 RMSDP=2.87D-03 MaxDP=4.04D-01 DE= 3.41D+00 OVMax= 9.71D-01

 Cycle   5  Pass 1  IDiag  1:
 RMSU=  1.66D-03    CP:  9.84D-01  4.22D-01  3.92D-01  3.67D-01
 E= -3068.45911079734     Delta-E=       -3.759668771994 Rises=F Damp=F
 DIIS: error= 6.03D-02 at cycle   5 NSaved=   5.
 NSaved= 5 IEnMin= 5 EnMin= -3068.45911079734     IErMin= 2 ErrMin= 1.57D-02
 ErrMax= 6.03D-02  0.00D+00 EMaxC= 1.00D-01 BMatC= 2.19D+00 BMatP= 1.04D+00
 IDIUse=2 WtCom= 0.00D+00 WtEn= 1.00D+00
 EnCoef did   100 forward-backward iterations
 Coeff-En:   0.126D-02 0.000D+00 0.496D+00 0.161D+00 0.341D+00
 Coeff:      0.126D-02 0.000D+00 0.496D+00 0.161D+00 0.341D+00
 Gap=    -0.008 Goal=   None    Shift=    0.000
 Gap=     0.119 Goal=   None    Shift=    0.000
 RMSDP=2.28D-03 MaxDP=3.29D-01 DE=-3.76D+00 OVMax= 6.98D-01

 Cycle   6  Pass 1  IDiag  1:
 RMSU=  1.41D-03    CP:  9.79D-01  1.00D+00  2.05D-01  2.62D-01  5.46D-02
 E= -3068.21034210680     Delta-E=        0.248768690541 Rises=F Damp=F
 DIIS: error= 6.72D-02 at cycle   6 NSaved=   6.
 NSaved= 6 IEnMin= 5 EnMin= -3068.45911079734     IErMin= 2 ErrMin= 1.57D-02
 ErrMax= 6.72D-02  0.00D+00 EMaxC= 1.00D-01 BMatC= 4.48D+00 BMatP= 1.04D+00
 IDIUse=2 WtCom= 0.00D+00 WtEn= 1.00D+00
 EnCoef did     3 forward-backward iterations
 Coeff-En:   0.000D+00 0.000D+00 0.238D+00 0.000D+00 0.425D+00 0.337D+00
 Coeff:      0.000D+00 0.000D+00 0.238D+00 0.000D+00 0.425D+00 0.337D+00
 Gap=     0.126 Goal=   None    Shift=    0.000
 Gap=     0.064 Goal=   None    Shift=    0.000
 RMSDP=1.45D-03 MaxDP=2.76D-01 DE= 2.49D-01 OVMax= 4.17D-01

 Cycle   7  Pass 1  IDiag  1:
 RMSU=  7.25D-04    CP:  9.85D-01  5.96D-01  4.80D-01  1.41D-01  1.99D-01
                    CP:  3.31D-01
 E= -3069.02152173517     Delta-E=       -0.811179628371 Rises=F Damp=F
 DIIS: error= 9.10D-03 at cycle   7 NSaved=   7.
 NSaved= 7 IEnMin= 7 EnMin= -3069.02152173517     IErMin= 7 ErrMin= 9.10D-03
 ErrMax= 9.10D-03  0.00D+00 EMaxC= 1.00D-01 BMatC= 1.28D-01 BMatP= 1.04D+00
 IDIUse=3 WtCom= 9.09D-01 WtEn= 9.10D-02
 Coeff-Com: -0.341D-01 0.120D+00 0.788D-01-0.104D-01 0.165D+00 0.125D+00
 Coeff-Com:  0.556D+00
 Coeff-En:   0.000D+00 0.000D+00 0.000D+00 0.000D+00 0.000D+00 0.344D-01
 Coeff-En:   0.966D+00
 Coeff:     -0.310D-01 0.109D+00 0.716D-01-0.949D-02 0.150D+00 0.117D+00
 Coeff:      0.594D+00
 Gap=     0.086 Goal=   None    Shift=    0.000
 Gap=     0.117 Goal=   None    Shift=    0.000
 RMSDP=7.33D-04 MaxDP=1.16D-01 DE=-8.11D-01 OVMax= 2.65D-01

 Cycle   8  Pass 1  IDiag  1:
 RMSU=  5.18D-04    CP:  9.83D-01  6.39D-01  3.69D-01  2.51D-01  2.45D-01
                    CP:  5.23D-01  5.83D-01
 E= -3069.01229955065     Delta-E=        0.009222184515 Rises=F Damp=F
 DIIS: error= 9.63D-03 at cycle   8 NSaved=   8.
 NSaved= 8 IEnMin= 7 EnMin= -3069.02152173517     IErMin= 7 ErrMin= 9.10D-03
 ErrMax= 9.63D-03  0.00D+00 EMaxC= 1.00D-01 BMatC= 2.23D-01 BMatP= 1.28D-01
 IDIUse=3 WtCom= 9.09D-01 WtEn= 9.10D-02
 Coeff-Com:  0.254D-02 0.114D-01-0.155D-01 0.234D-02 0.459D-01-0.491D-01
 Coeff-Com:  0.491D+00 0.511D+00
 Coeff-En:   0.000D+00 0.000D+00 0.000D+00 0.000D+00 0.000D+00 0.000D+00
 Coeff-En:   0.539D+00 0.461D+00
 Coeff:      0.230D-02 0.104D-01-0.141D-01 0.213D-02 0.417D-01-0.446D-01
 Coeff:      0.495D+00 0.507D+00
 Gap=     0.088 Goal=   None    Shift=    0.000
 Gap=     0.120 Goal=   None    Shift=    0.000
 RMSDP=3.87D-04 MaxDP=4.82D-02 DE= 9.22D-03 OVMax= 1.26D-01

 Cycle   9  Pass 1  IDiag  1:
 RMSU=  1.90D-04    CP:  9.84D-01  5.71D-01  4.06D-01  2.28D-01  2.65D-01
                    CP:  3.94D-01  8.53D-01  6.87D-01
 E= -3069.06516836398     Delta-E=       -0.052868813326 Rises=F Damp=F
 DIIS: error= 3.70D-03 at cycle   9 NSaved=   9.
 NSaved= 9 IEnMin= 9 EnMin= -3069.06516836398     IErMin= 9 ErrMin= 3.70D-03
 ErrMax= 3.70D-03  0.00D+00 EMaxC= 1.00D-01 BMatC= 8.63D-03 BMatP= 1.28D-01
 IDIUse=3 WtCom= 9.63D-01 WtEn= 3.70D-02
 Coeff-Com: -0.377D-02 0.176D-01-0.317D-02 0.555D-05 0.186D-01-0.383D-01
 Coeff-Com:  0.259D+00 0.312D+00 0.439D+00
 Coeff-En:   0.000D+00 0.000D+00 0.000D+00 0.000D+00 0.000D+00 0.000D+00
 Coeff-En:   0.000D+00 0.000D+00 0.100D+01
 Coeff:     -0.363D-02 0.169D-01-0.305D-02 0.534D-05 0.179D-01-0.369D-01
 Coeff:      0.249D+00 0.300D+00 0.460D+00
 Gap=     0.096 Goal=   None    Shift=    0.000
 Gap=     0.111 Goal=   None    Shift=    0.000
 RMSDP=1.44D-04 MaxDP=8.72D-03 DE=-5.29D-02 OVMax= 4.10D-02

 Cycle  10  Pass 1  IDiag  1:
 RMSU=  1.15D-04    CP:  9.84D-01  5.92D-01  4.07D-01  2.22D-01  2.57D-01
                    CP:  4.01D-01  8.33D-01  7.52D-01  6.28D-01
 E= -3069.06714762017     Delta-E=       -0.001979256192 Rises=F Damp=F
 DIIS: error= 2.53D-03 at cycle  10 NSaved=  10.
 NSaved=10 IEnMin=10 EnMin= -3069.06714762017     IErMin=10 ErrMin= 2.53D-03
 ErrMax= 2.53D-03  0.00D+00 EMaxC= 1.00D-01 BMatC= 4.72D-03 BMatP= 8.63D-03
 IDIUse=3 WtCom= 9.75D-01 WtEn= 2.53D-02
 Coeff-Com: -0.157D-02 0.347D-02 0.884D-02-0.125D-02-0.166D-02-0.572D-02
 Coeff-Com: -0.272D-01-0.303D-01 0.387D+00 0.669D+00
 Coeff-En:   0.000D+00 0.000D+00 0.000D+00 0.000D+00 0.000D+00 0.000D+00
 Coeff-En:   0.000D+00 0.000D+00 0.294D+00 0.706D+00
 Coeff:     -0.153D-02 0.338D-02 0.862D-02-0.122D-02-0.162D-02-0.558D-02
 Coeff:     -0.265D-01-0.295D-01 0.384D+00 0.670D+00
 Gap=     0.100 Goal=   None    Shift=    0.000
 Gap=     0.111 Goal=   None    Shift=    0.000
 RMSDP=8.45D-05 MaxDP=1.12D-02 DE=-1.98D-03 OVMax= 2.13D-02

 Cycle  11  Pass 1  IDiag  1:
 RMSU=  4.60D-05    CP:  9.84D-01  5.89D-01  4.07D-01  2.25D-01  2.57D-01
                    CP:  3.98D-01  8.33D-01  7.53D-01  9.97D-01  1.01D+00
 E= -3069.06881746416     Delta-E=       -0.001669843993 Rises=F Damp=F
 DIIS: error= 9.22D-04 at cycle  11 NSaved=  11.
 NSaved=11 IEnMin=11 EnMin= -3069.06881746416     IErMin=11 ErrMin= 9.22D-04
 ErrMax= 9.22D-04  0.00D+00 EMaxC= 1.00D-01 BMatC= 1.08D-03 BMatP= 4.72D-03
 IDIUse=3 WtCom= 9.91D-01 WtEn= 9.22D-03
 Coeff-Com:  0.340D-02-0.485D-02 0.632D-02-0.695D-03-0.274D-02-0.394D-03
 Coeff-Com: -0.395D-01-0.504D-01 0.143D+00 0.363D+00 0.583D+00
 Coeff-En:   0.000D+00 0.000D+00 0.000D+00 0.000D+00 0.000D+00 0.000D+00
 Coeff-En:   0.000D+00 0.000D+00 0.000D+00 0.000D+00 0.100D+01
 Coeff:      0.337D-02-0.481D-02 0.626D-02-0.689D-03-0.271D-02-0.391D-03
 Coeff:     -0.392D-01-0.500D-01 0.142D+00 0.360D+00 0.587D+00
 Gap=     0.101 Goal=   None    Shift=    0.000
 Gap=     0.111 Goal=   None    Shift=    0.000
 RMSDP=4.07D-05 MaxDP=7.52D-03 DE=-1.67D-03 OVMax= 1.01D-02

 Cycle  12  Pass 1  IDiag  1:
 RMSU=  2.97D-05    CP:  9.84D-01  5.85D-01  4.09D-01  2.25D-01  2.56D-01
                    CP:  3.95D-01  8.29D-01  7.65D-01  1.07D+00  1.19D+00
                    CP:  9.74D-01
 E= -3069.06914143952     Delta-E=       -0.000323975355 Rises=F Damp=F
 DIIS: error= 5.90D-04 at cycle  12 NSaved=  12.
 NSaved=12 IEnMin=12 EnMin= -3069.06914143952     IErMin=12 ErrMin= 5.90D-04
 ErrMax= 5.90D-04  0.00D+00 EMaxC= 1.00D-01 BMatC= 4.86D-04 BMatP= 1.08D-03
 IDIUse=3 WtCom= 9.94D-01 WtEn= 5.90D-03
 Coeff-Com:  0.541D-02-0.641D-02 0.209D-02-0.206D-03-0.101D-02 0.754D-03
 Coeff-Com: -0.684D-02-0.675D-02-0.137D+00-0.140D+00 0.522D+00 0.768D+00
 Coeff-En:   0.000D+00 0.000D+00 0.000D+00 0.000D+00 0.000D+00 0.000D+00
 Coeff-En:   0.000D+00 0.000D+00 0.000D+00 0.000D+00 0.000D+00 0.100D+01
 Coeff:      0.538D-02-0.638D-02 0.208D-02-0.204D-03-0.100D-02 0.750D-03
 Coeff:     -0.680D-02-0.672D-02-0.136D+00-0.139D+00 0.519D+00 0.769D+00
 Gap=     0.102 Goal=   None    Shift=    0.000
 Gap=     0.111 Goal=   None    Shift=    0.000
 RMSDP=4.56D-05 MaxDP=1.07D-02 DE=-3.24D-04 OVMax= 1.36D-02

 Cycle  13  Pass 1  IDiag  1:
 RMSU=  2.08D-05    CP:  9.84D-01  5.83D-01  4.11D-01  2.24D-01  2.55D-01
                    CP:  3.90D-01  8.23D-01  7.75D-01  1.17D+00  1.37D+00
                    CP:  1.58D+00  1.03D+00
 E= -3069.06942175779     Delta-E=       -0.000280318274 Rises=F Damp=F
 DIIS: error= 3.00D-04 at cycle  13 NSaved=  13.
 NSaved=13 IEnMin=13 EnMin= -3069.06942175779     IErMin=13 ErrMin= 3.00D-04
 ErrMax= 3.00D-04  0.00D+00 EMaxC= 1.00D-01 BMatC= 1.33D-04 BMatP= 4.86D-04
 IDIUse=3 WtCom= 9.97D-01 WtEn= 3.00D-03
 Coeff-Com:  0.213D-02-0.191D-02 0.245D-03-0.753D-04-0.480D-03 0.429D-04
 Coeff-Com:  0.114D-01 0.210D-01-0.116D+00-0.189D+00 0.126D+00 0.491D+00
 Coeff-Com:  0.657D+00
 Coeff-En:   0.000D+00 0.000D+00 0.000D+00 0.000D+00 0.000D+00 0.000D+00
 Coeff-En:   0.000D+00 0.000D+00 0.000D+00 0.000D+00 0.000D+00 0.000D+00
 Coeff-En:   0.100D+01
 Coeff:      0.212D-02-0.190D-02 0.245D-03-0.751D-04-0.478D-03 0.428D-04
 Coeff:      0.113D-01 0.210D-01-0.116D+00-0.188D+00 0.125D+00 0.489D+00
 Coeff:      0.658D+00
 Gap=     0.102 Goal=   None    Shift=    0.000
 Gap=     0.112 Goal=   None    Shift=    0.000
 RMSDP=2.49D-05 MaxDP=5.69D-03 DE=-2.80D-04 OVMax= 7.89D-03

 Cycle  14  Pass 1  IDiag  1:
 RMSU=  1.27D-05    CP:  9.84D-01  5.84D-01  4.11D-01  2.24D-01  2.53D-01
                    CP:  3.92D-01  8.16D-01  7.79D-01  1.19D+00  1.46D+00
                    CP:  1.77D+00  1.50D+00  1.20D+00
 E= -3069.06951662864     Delta-E=       -0.000094870844 Rises=F Damp=F
 DIIS: error= 1.77D-04 at cycle  14 NSaved=  14.
 NSaved=14 IEnMin=14 EnMin= -3069.06951662864     IErMin=14 ErrMin= 1.77D-04
 ErrMax= 1.77D-04  0.00D+00 EMaxC= 1.00D-01 BMatC= 5.53D-05 BMatP= 1.33D-04
 IDIUse=3 WtCom= 9.98D-01 WtEn= 1.77D-03
 Coeff-Com: -0.419D-03 0.120D-02-0.279D-04-0.799D-04 0.856D-04-0.617D-03
 Coeff-Com:  0.119D-01 0.203D-01-0.306D-01-0.828D-01-0.103D+00 0.755D-01
 Coeff-Com:  0.487D+00 0.622D+00
 Coeff-En:   0.000D+00 0.000D+00 0.000D+00 0.000D+00 0.000D+00 0.000D+00
 Coeff-En:   0.000D+00 0.000D+00 0.000D+00 0.000D+00 0.000D+00 0.000D+00
 Coeff-En:   0.000D+00 0.100D+01
 Coeff:     -0.418D-03 0.120D-02-0.278D-04-0.798D-04 0.854D-04-0.616D-03
 Coeff:      0.118D-01 0.203D-01-0.305D-01-0.827D-01-0.103D+00 0.754D-01
 Coeff:      0.486D+00 0.622D+00
 Gap=     0.103 Goal=   None    Shift=    0.000
 Gap=     0.112 Goal=   None    Shift=    0.000
 RMSDP=1.88D-05 MaxDP=4.22D-03 DE=-9.49D-05 OVMax= 5.91D-03

 Cycle  15  Pass 1  IDiag  1:
 RMSU=  1.00D-05    CP:  9.84D-01  5.85D-01  4.10D-01  2.24D-01  2.52D-01
                    CP:  3.93D-01  8.11D-01  7.81D-01  1.21D+00  1.48D+00
                    CP:  1.97D+00  1.71D+00  1.65D+00  1.13D+00
 E= -3069.06956319720     Delta-E=       -0.000046568558 Rises=F Damp=F
 DIIS: error= 1.76D-04 at cycle  15 NSaved=  15.
 NSaved=15 IEnMin=15 EnMin= -3069.06956319720     IErMin=15 ErrMin= 1.76D-04
 ErrMax= 1.76D-04  0.00D+00 EMaxC= 1.00D-01 BMatC= 5.30D-05 BMatP= 5.53D-05
 IDIUse=3 WtCom= 9.98D-01 WtEn= 1.76D-03
 Coeff-Com: -0.495D-03 0.823D-03 0.653D-04-0.289D-04 0.495D-03-0.101D-02
 Coeff-Com:  0.614D-02 0.807D-02 0.108D-01-0.435D-02-0.122D+00-0.104D+00
 Coeff-Com:  0.157D+00 0.480D+00 0.569D+00
 Coeff-En:   0.000D+00 0.000D+00 0.000D+00 0.000D+00 0.000D+00 0.000D+00
 Coeff-En:   0.000D+00 0.000D+00 0.000D+00 0.000D+00 0.000D+00 0.000D+00
 Coeff-En:   0.000D+00 0.000D+00 0.100D+01
 Coeff:     -0.494D-03 0.821D-03 0.652D-04-0.289D-04 0.494D-03-0.101D-02
 Coeff:      0.613D-02 0.806D-02 0.108D-01-0.434D-02-0.122D+00-0.103D+00
 Coeff:      0.157D+00 0.479D+00 0.569D+00
 Gap=     0.103 Goal=   None    Shift=    0.000
 Gap=     0.112 Goal=   None    Shift=    0.000
 RMSDP=1.47D-05 MaxDP=3.49D-03 DE=-4.66D-05 OVMax= 5.26D-03

 Cycle  16  Pass 1  IDiag  1:
 RMSU=  5.39D-06    CP:  9.84D-01  5.85D-01  4.10D-01  2.25D-01  2.52D-01
                    CP:  3.93D-01  8.09D-01  7.84D-01  1.22D+00  1.50D+00
                    CP:  2.07D+00  1.91D+00  2.02D+00  1.71D+00  1.19D+00
 E= -3069.06959892332     Delta-E=       -0.000035726122 Rises=F Damp=F
 DIIS: error= 1.53D-04 at cycle  16 NSaved=  16.
 NSaved=16 IEnMin=16 EnMin= -3069.06959892332     IErMin=16 ErrMin= 1.53D-04
 ErrMax= 1.53D-04  0.00D+00 EMaxC= 1.00D-01 BMatC= 3.63D-05 BMatP= 5.30D-05
 IDIUse=3 WtCom= 9.98D-01 WtEn= 1.53D-03
 Coeff-Com:  0.198D-03-0.173D-03 0.333D-03-0.253D-04 0.621D-03-0.101D-02
 Coeff-Com:  0.186D-02-0.155D-02 0.158D-01 0.223D-01-0.653D-01-0.108D+00
 Coeff-Com: -0.507D-01 0.105D+00 0.361D+00 0.719D+00
 Coeff-En:   0.000D+00 0.000D+00 0.000D+00 0.000D+00 0.000D+00 0.000D+00
 Coeff-En:   0.000D+00 0.000D+00 0.000D+00 0.000D+00 0.000D+00 0.000D+00
 Coeff-En:   0.000D+00 0.000D+00 0.000D+00 0.100D+01
 Coeff:      0.198D-03-0.172D-03 0.332D-03-0.252D-04 0.620D-03-0.101D-02
 Coeff:      0.185D-02-0.154D-02 0.158D-01 0.222D-01-0.652D-01-0.108D+00
 Coeff:     -0.507D-01 0.105D+00 0.361D+00 0.719D+00
 Gap=     0.103 Goal=   None    Shift=    0.000
 Gap=     0.112 Goal=   None    Shift=    0.000
 RMSDP=1.58D-05 MaxDP=3.63D-03 DE=-3.57D-05 OVMax= 5.69D-03

 Cycle  17  Pass 1  IDiag  1:
 RMSU=  3.76D-06    CP:  9.84D-01  5.84D-01  4.10D-01  2.25D-01  2.52D-01
                    CP:  3.92D-01  8.06D-01  7.86D-01  1.23D+00  1.52D+00
                    CP:  2.17D+00  2.10D+00  2.46D+00  2.19D+00  1.83D+00
                    CP:  1.39D+00
 E= -3069.06963049770     Delta-E=       -0.000031574378 Rises=F Damp=F
 DIIS: error= 1.24D-04 at cycle  17 NSaved=  17.
 NSaved=17 IEnMin=17 EnMin= -3069.06963049770     IErMin=17 ErrMin= 1.24D-04
 ErrMax= 1.24D-04  0.00D+00 EMaxC= 1.00D-01 BMatC= 2.35D-05 BMatP= 3.63D-05
 IDIUse=3 WtCom= 9.99D-01 WtEn= 1.24D-03
 Coeff-Com:  0.864D-03-0.107D-02 0.349D-03 0.121D-04 0.160D-03-0.595D-03
 Coeff-Com:  0.200D-02-0.274D-02 0.978D-02 0.160D-01-0.182D-01-0.509D-01
 Coeff-Com: -0.830D-01-0.151D+00-0.149D+00 0.437D+00 0.991D+00
 Coeff-En:   0.000D+00 0.000D+00 0.000D+00 0.000D+00 0.000D+00 0.000D+00
 Coeff-En:   0.000D+00 0.000D+00 0.000D+00 0.000D+00 0.000D+00 0.000D+00
 Coeff-En:   0.000D+00 0.000D+00 0.000D+00 0.000D+00 0.100D+01
 Coeff:      0.863D-03-0.107D-02 0.348D-03 0.121D-04 0.160D-03-0.594D-03
 Coeff:      0.200D-02-0.274D-02 0.977D-02 0.160D-01-0.181D-01-0.508D-01
 Coeff:     -0.829D-01-0.151D+00-0.149D+00 0.437D+00 0.991D+00
 Gap=     0.103 Goal=   None    Shift=    0.000
 Gap=     0.112 Goal=   None    Shift=    0.000
 RMSDP=2.19D-05 MaxDP=4.74D-03 DE=-3.16D-05 OVMax= 7.57D-03

 Cycle  18  Pass 1  IDiag  1:
 RMSU=  3.21D-06    CP:  9.84D-01  5.83D-01  4.10D-01  2.25D-01  2.51D-01
                    CP:  3.92D-01  8.03D-01  7.88D-01  1.24D+00  1.54D+00
                    CP:  2.30D+00  2.36D+00  3.00D+00  2.99D+00  2.65D+00
                    CP:  2.50D+00  1.60D+00
 E= -3069.06966311809     Delta-E=       -0.000032620391 Rises=F Damp=F
 DIIS: error= 9.76D-05 at cycle  18 NSaved=  18.
 NSaved=18 IEnMin=18 EnMin= -3069.06966311809     IErMin=18 ErrMin= 9.76D-05
 ErrMax= 9.76D-05  0.00D+00 EMaxC= 1.00D-01 BMatC= 1.68D-05 BMatP= 2.35D-05
 IDIUse=1 WtCom= 1.00D+00 WtEn= 0.00D+00
 Coeff-Com:  0.835D-03-0.102D-02 0.299D-03 0.409D-05-0.380D-03-0.145D-03
 Coeff-Com:  0.463D-02 0.346D-02-0.666D-04-0.523D-02-0.935D-02 0.471D-03
 Coeff-Com:  0.202D-01-0.109D+00-0.366D+00-0.306D+00 0.855D+00 0.912D+00
 Coeff:      0.835D-03-0.102D-02 0.299D-03 0.409D-05-0.380D-03-0.145D-03
 Coeff:      0.463D-02 0.346D-02-0.666D-04-0.523D-02-0.935D-02 0.471D-03
 Coeff:      0.202D-01-0.109D+00-0.366D+00-0.306D+00 0.855D+00 0.912D+00
 Gap=     0.103 Goal=   None    Shift=    0.000
 Gap=     0.112 Goal=   None    Shift=    0.000
 RMSDP=2.33D-05 MaxDP=4.65D-03 DE=-3.26D-05 OVMax= 7.76D-03

 Cycle  19  Pass 1  IDiag  1:
 RMSU=  1.74D-05    CP:  9.84D-01  5.83D-01  4.10D-01  2.26D-01  2.51D-01
                    CP:  3.91D-01  7.98D-01  7.89D-01  1.25D+00  1.55D+00
                    CP:  2.43D+00  2.63D+00  3.00D+00  3.00D+00  3.00D+00
                    CP:  3.00D+00  2.95D+00  2.35D+00
 E= -3069.06968757723     Delta-E=       -0.000024459138 Rises=F Damp=F
 DIIS: error= 6.91D-05 at cycle  19 NSaved=  19.
 NSaved=19 IEnMin=19 EnMin= -3069.06968757723     IErMin=19 ErrMin= 6.91D-05
 ErrMax= 6.91D-05  0.00D+00 EMaxC= 1.00D-01 BMatC= 9.66D-06 BMatP= 1.68D-05
 IDIUse=1 WtCom= 1.00D+00 WtEn= 0.00D+00
 Coeff-Com:  0.279D-03-0.378D-03 0.206D-03 0.578D-05-0.239D-03-0.304D-03
 Coeff-Com:  0.501D-02 0.720D-02-0.313D-02-0.111D-01-0.264D-01-0.687D-02
 Coeff-Com:  0.803D-01 0.108D+00 0.238D-01-0.356D+00-0.269D+00 0.253D+00
 Coeff-Com:  0.120D+01
 Coeff:      0.279D-03-0.378D-03 0.206D-03 0.578D-05-0.239D-03-0.304D-03
 Coeff:      0.501D-02 0.720D-02-0.313D-02-0.111D-01-0.264D-01-0.687D-02
 Coeff:      0.803D-01 0.108D+00 0.238D-01-0.356D+00-0.269D+00 0.253D+00
 Coeff:      0.120D+01
 Gap=     0.104 Goal=   None    Shift=    0.000
 Gap=     0.113 Goal=   None    Shift=    0.000
 RMSDP=1.66D-05 MaxDP=2.71D-03 DE=-2.45D-05 OVMax= 4.75D-03

 Cycle  20  Pass 1  IDiag  1:
 RMSU=  6.58D-06    CP:  9.84D-01  5.82D-01  4.10D-01  2.26D-01  2.50D-01
                    CP:  3.91D-01  7.95D-01  7.89D-01  1.24D+00  1.56D+00
                    CP:  2.50D+00  2.79D+00  3.00D+00  3.00D+00  3.00D+00
                    CP:  3.00D+00  3.00D+00  3.00D+00  1.75D+00
 E= -3069.06969944343     Delta-E=       -0.000011866203 Rises=F Damp=F
 DIIS: error= 5.24D-05 at cycle  20 NSaved=  20.
 NSaved=20 IEnMin=20 EnMin= -3069.06969944343     IErMin=20 ErrMin= 5.24D-05
 ErrMax= 5.24D-05  0.00D+00 EMaxC= 1.00D-01 BMatC= 3.55D-06 BMatP= 9.66D-06
 IDIUse=1 WtCom= 1.00D+00 WtEn= 0.00D+00
 Coeff-Com: -0.431D-04-0.170D-04 0.121D-03-0.115D-04-0.175D-04-0.284D-03
 Coeff-Com:  0.265D-02 0.466D-02-0.277D-02-0.685D-02-0.203D-01-0.103D-01
 Coeff-Com:  0.603D-01 0.149D+00 0.198D+00-0.160D+00-0.625D+00-0.217D+00
 Coeff-Com:  0.101D+01 0.619D+00
 Coeff:     -0.431D-04-0.170D-04 0.121D-03-0.115D-04-0.175D-04-0.284D-03
 Coeff:      0.265D-02 0.466D-02-0.277D-02-0.685D-02-0.203D-01-0.103D-01
 Coeff:      0.603D-01 0.149D+00 0.198D+00-0.160D+00-0.625D+00-0.217D+00
 Coeff:      0.101D+01 0.619D+00
 Gap=     0.104 Goal=   None    Shift=    0.000
 Gap=     0.113 Goal=   None    Shift=    0.000
 RMSDP=9.67D-06 MaxDP=1.50D-03 DE=-1.19D-05 OVMax= 2.74D-03

 Cycle  21  Pass 1  IDiag  1:
 Restarting incremental Fock formation.
 E= -3069.06970468921     Delta-E=       -0.000005245782 Rises=F Damp=F
 DIIS: error= 4.86D-05 at cycle  21 NSaved=  20.
 NSaved=20 IEnMin=20 EnMin= -3069.06970468921     IErMin=20 ErrMin= 4.86D-05
 ErrMax= 4.86D-05  0.00D+00 EMaxC= 1.00D-01 BMatC= 8.26D-07 BMatP= 3.55D-06
 IDIUse=1 WtCom= 1.00D+00 WtEn= 0.00D+00
 Coeff-Com: -0.158D-04-0.208D-04-0.420D-04 0.691D-04-0.338D-04-0.775D-04
 Coeff-Com: -0.268D-03 0.868D-04 0.103D-02-0.207D-02-0.443D-02 0.429D-02
 Coeff-Com:  0.330D-01 0.684D-01 0.215D-01-0.170D+00-0.156D+00 0.852D-01
 Coeff-Com:  0.275D+00 0.844D+00
 Coeff:     -0.158D-04-0.208D-04-0.420D-04 0.691D-04-0.338D-04-0.775D-04
 Coeff:     -0.268D-03 0.868D-04 0.103D-02-0.207D-02-0.443D-02 0.429D-02
 Coeff:      0.330D-01 0.684D-01 0.215D-01-0.170D+00-0.156D+00 0.852D-01
 Coeff:      0.275D+00 0.844D+00
 Gap=     0.104 Goal=   None    Shift=    0.000
 Gap=     0.113 Goal=   None    Shift=    0.000
 RMSDP=5.55D-06 MaxDP=9.92D-04 DE=-5.25D-06 OVMax= 1.81D-03

 SCF Done:  E(UB3LYP) =  -3069.06970469     A.U. after   21 cycles
            NFock= 21  Conv=0.55D-05     -V/T= 2.0028
 <Sx>= 0.0000 <Sy>= 0.0000 <Sz>= 0.5000 <S**2>= 0.8895 S= 0.5675
 <L.S>= 0.000000000000E+00
 KE= 3.060500906969D+03 PE=-1.423962441532D+04 EE= 4.619676389483D+03
 Annihilation of the first spin contaminant:
 S**2 before annihilation     0.8895,   after     0.7553
 Leave Link  502 at Wed Jul  8 09:51:32 2020, MaxMem=  5368709120 cpu:      5387.4
 (Enter /usr/public/gaussian/g09.D01/l801.exe)
 DoSCS=F DFT=T ScalE2(SS,OS)=  1.000000  1.000000
 Range of M.O.s used for correlation:     1   569
 NBasis=   569 NAE=   112 NBE=   111 NFC=     0 NFV=     0
 NROrb=    569 NOA=   112 NOB=   111 NVA=   457 NVB=   458

 **** Warning!!: The largest alpha MO coefficient is  0.14932916D+02


 **** Warning!!: The largest beta MO coefficient is  0.14787090D+02

 Leave Link  801 at Wed Jul  8 09:51:32 2020, MaxMem=  5368709120 cpu:         4.4
 (Enter /usr/public/gaussian/g09.D01/l1101.exe)
 Using compressed storage, NAtomX=    40.
 Will process     41 centers per pass.
 Leave Link 1101 at Wed Jul  8 09:51:37 2020, MaxMem=  5368709120 cpu:        92.0
 (Enter /usr/public/gaussian/g09.D01/l1102.exe)
 Symmetrizing basis deriv contribution to polar:
 IMax=3 JMax=2 DiffMx= 0.00D+00
 Leave Link 1102 at Wed Jul  8 09:51:38 2020, MaxMem=  5368709120 cpu:         3.1
 (Enter /usr/public/gaussian/g09.D01/l1110.exe)
 Forming Gx(P) for the SCF density, NAtomX=    40.
 Integral derivatives from FoFJK, PRISM(SPDF).
 Do as many integral derivatives as possible in FoFJK.
 G2DrvN: MDV=    5368708696.
 G2DrvN: will do    41 centers at a time, making    1 passes.
 Calling FoFCou, ICntrl=  3107 FMM=F I1Cent=   0 AccDes= 0.00D+00.
 FoFJK:  IHMeth= 1 ICntrl=    3107 DoSepK=F KAlg= 0 I1Cent=   0 FoldK=F
 IRaf=         0 NMat=   1 IRICut=       1 DoRegI=T DoRafI=F ISym2E= 0.
 FoFCou: FMM=F IPFlag=           0 FMFlag=      100000 FMFlg1=           0
         NFxFlg=           0 DoJE=F BraDBF=F KetDBF=F FulRan=T
         wScrn=  0.000000 ICntrl=    3107 IOpCl=  1 I1Cent=           0 NGrid=           0
         NMat0=    1 NMatS0=      1 NMatT0=    0 NMatD0=    1 NMtDS0=    0 NMtDT0=    0
 Symmetry not used in FoFCou.
 End of G2Drv F.D. properties file   721 does not exist.
 End of G2Drv F.D. properties file   722 does not exist.
 End of G2Drv F.D. properties file   788 does not exist.
 Leave Link 1110 at Wed Jul  8 09:56:19 2020, MaxMem=  5368709120 cpu:      5580.0
 (Enter /usr/public/gaussian/g09.D01/l1002.exe)
 Minotr:  UHF open shell wavefunction.
          IDoAtm=1111111111111111111111111111111111111111
          Direct CPHF calculation.
          Differentiating once with respect to nuclear coordinates.
          Requested convergence is 1.0D-08 RMS, and 1.0D-07 maximum.
          Secondary convergence is 1.0D-12 RMS, and 1.0D-12 maximum.
          NewPWx=T KeepS1=F KeepF1=F KeepIn=T MapXYZ=F SortEE=F KeepMc=T.
          MDV=    5368707578 using IRadAn=       2.
 Generate precomputed XC quadrature information.
          Solving linear equations simultaneously, MaxMat=       0.
 FoFJK:  IHMeth= 1 ICntrl=       0 DoSepK=F KAlg= 0 I1Cent=   0 FoldK=F
 IRaf= 730000000 NMat= 123 IRICut=     307 DoRegI=T DoRafI=T ISym2E= 0.
 FoFCou: FMM=F IPFlag=           0 FMFlag=      100000 FMFlg1=           0
         NFxFlg=           0 DoJE=F BraDBF=F KetDBF=F FulRan=T
         wScrn=  0.000000 ICntrl=       0 IOpCl=  1 I1Cent=           0 NGrid=           0
         NMat0=  123 NMatS0=    123 NMatT0=    0 NMatD0=  123 NMtDS0=    0 NMtDT0=    0
 Symmetry not used in FoFCou.
          There are   123 degrees of freedom in the 1st order CPHF.  IDoFFX=6 NUNeed=     0.
    119 vectors produced by pass  0 Test12= 1.02D-13 1.00D-09 XBig12= 4.44D-01 1.58D-01.
 AX will form   119 AO Fock derivatives at one time.
    117 vectors produced by pass  1 Test12= 1.02D-13 1.00D-09 XBig12= 1.06D-01 4.44D-02.
    117 vectors produced by pass  2 Test12= 1.02D-13 1.00D-09 XBig12= 1.59D-03 4.87D-03.
    117 vectors produced by pass  3 Test12= 1.02D-13 1.00D-09 XBig12= 3.23D-05 1.06D-03.
    117 vectors produced by pass  4 Test12= 1.02D-13 1.00D-09 XBig12= 2.90D-07 4.91D-05.
    117 vectors produced by pass  5 Test12= 1.02D-13 1.00D-09 XBig12= 1.57D-09 3.55D-06.
    114 vectors produced by pass  6 Test12= 1.02D-13 1.00D-09 XBig12= 8.18D-12 1.85D-07.
     62 vectors produced by pass  7 Test12= 1.02D-13 1.00D-09 XBig12= 4.67D-14 1.53D-08.
      2 vectors produced by pass  8 Test12= 1.02D-13 1.00D-09 XBig12= 2.86D-16 1.18D-09.
 InvSVY:  IOpt=1 It=  1 EMax= 1.50D-15
 Solved reduced A of dimension   882 with   123 vectors.
 End of Minotr F.D. properties file   721 does not exist.
 End of Minotr F.D. properties file   722 does not exist.
 End of Minotr F.D. properties file   788 does not exist.
 Leave Link 1002 at Wed Jul  8 10:29:21 2020, MaxMem=  5368709120 cpu:     39521.4
 (Enter /usr/public/gaussian/g09.D01/l601.exe)
 Copying SCF densities to generalized density rwf, IOpCl= 1 IROHF=0.

 **********************************************************************

            Population analysis using the SCF density.

 **********************************************************************

 Alpha  occ. eigenvalues -- -277.55469-101.47189 -38.43844 -32.88014 -28.53637
 Alpha  occ. eigenvalues --  -28.53328 -28.52938 -19.09213 -14.33150 -14.32887
 Alpha  occ. eigenvalues --  -14.32550 -14.32263 -10.22252 -10.22042 -10.21625
 Alpha  occ. eigenvalues --  -10.21306 -10.21277 -10.21095 -10.21028 -10.20976
 Alpha  occ. eigenvalues --  -10.19631 -10.18805 -10.18677 -10.18557 -10.18523
 Alpha  occ. eigenvalues --  -10.18476 -10.18291 -10.18163 -10.17787 -10.17716
 Alpha  occ. eigenvalues --  -10.17562 -10.17489  -9.38391  -7.14740  -7.14027
 Alpha  occ. eigenvalues --   -7.13956  -3.74607  -2.43052  -2.42671  -2.42498
 Alpha  occ. eigenvalues --   -2.19978  -1.13760  -1.13657  -1.13584  -0.97868
 Alpha  occ. eigenvalues --   -0.96819  -0.96708  -0.95695  -0.86647  -0.83087
 Alpha  occ. eigenvalues --   -0.80349  -0.80156  -0.78695  -0.78066  -0.77752
 Alpha  occ. eigenvalues --   -0.77303  -0.75378  -0.72624  -0.71606  -0.66594
 Alpha  occ. eigenvalues --   -0.66567  -0.60816  -0.58943  -0.58472  -0.58363
 Alpha  occ. eigenvalues --   -0.58141  -0.55814  -0.55398  -0.53470  -0.53360
 Alpha  occ. eigenvalues --   -0.52406  -0.50827  -0.50763  -0.46512  -0.44801
 Alpha  occ. eigenvalues --   -0.44317  -0.43779  -0.43653  -0.43356  -0.42757
 Alpha  occ. eigenvalues --   -0.42622  -0.42105  -0.40793  -0.40654  -0.40259
 Alpha  occ. eigenvalues --   -0.39910  -0.39430  -0.39198  -0.38685  -0.38459
 Alpha  occ. eigenvalues --   -0.37427  -0.35175  -0.35133  -0.33932  -0.33319
 Alpha  occ. eigenvalues --   -0.33211  -0.32976  -0.31737  -0.29476  -0.29292
 Alpha  occ. eigenvalues --   -0.28629  -0.27638  -0.27183  -0.26838  -0.25955
 Alpha  occ. eigenvalues --   -0.24798  -0.24532  -0.23449  -0.21700  -0.21472
 Alpha  occ. eigenvalues --   -0.20700  -0.19772
 Alpha virt. eigenvalues --   -0.09400  -0.09233  -0.08687  -0.05667  -0.03248
 Alpha virt. eigenvalues --   -0.02884   0.01172   0.01381   0.02560   0.03036
 Alpha virt. eigenvalues --    0.04639   0.05031   0.05309   0.05857   0.05970
 Alpha virt. eigenvalues --    0.06722   0.06793   0.07155   0.07467   0.07878
 Alpha virt. eigenvalues --    0.07998   0.08836   0.09503   0.09746   0.09834
 Alpha virt. eigenvalues --    0.10296   0.11362   0.11984   0.12287   0.12437
 Alpha virt. eigenvalues --    0.12700   0.12989   0.14181   0.15353   0.18426
 Alpha virt. eigenvalues --    0.19091   0.20334   0.20520   0.21055   0.22253
 Alpha virt. eigenvalues --    0.22570   0.23275   0.23528   0.23976   0.27128
 Alpha virt. eigenvalues --    0.27680   0.28309   0.29594   0.30141   0.30320
 Alpha virt. eigenvalues --    0.30630   0.30878   0.31533   0.32320   0.32605
 Alpha virt. eigenvalues --    0.33563   0.33872   0.34412   0.34514   0.35980
 Alpha virt. eigenvalues --    0.36553   0.37013   0.37473   0.37718   0.37948
 Alpha virt. eigenvalues --    0.38301   0.38536   0.38765   0.39417   0.39818
 Alpha virt. eigenvalues --    0.40036   0.40330   0.40509   0.40553   0.40880
 Alpha virt. eigenvalues --    0.41050   0.41485   0.42014   0.42183   0.42432
 Alpha virt. eigenvalues --    0.42749   0.43112   0.43574   0.44087   0.44361
 Alpha virt. eigenvalues --    0.44524   0.44901   0.46033   0.46794   0.47764
 Alpha virt. eigenvalues --    0.48541   0.49431   0.50360   0.50598   0.50760
 Alpha virt. eigenvalues --    0.51783   0.52490   0.52513   0.53012   0.53498
 Alpha virt. eigenvalues --    0.53767   0.55158   0.55406   0.55685   0.56133
 Alpha virt. eigenvalues --    0.56601   0.57173   0.57916   0.58233   0.58367
 Alpha virt. eigenvalues --    0.59905   0.60170   0.60759   0.61706   0.62094
 Alpha virt. eigenvalues --    0.62166   0.62572   0.63477   0.63763   0.64803
 Alpha virt. eigenvalues --    0.65220   0.65439   0.66719   0.67005   0.67318
 Alpha virt. eigenvalues --    0.67783   0.68325   0.68757   0.71452   0.71587
 Alpha virt. eigenvalues --    0.72591   0.72704   0.73278   0.74007   0.74886
 Alpha virt. eigenvalues --    0.75667   0.76647   0.77064   0.77195   0.77670
 Alpha virt. eigenvalues --    0.78291   0.78750   0.79779   0.80634   0.81163
 Alpha virt. eigenvalues --    0.81812   0.82111   0.82354   0.82722   0.83222
 Alpha virt. eigenvalues --    0.84298   0.85030   0.86767   0.88114   0.88582
 Alpha virt. eigenvalues --    0.89289   0.90413   0.91018   0.91277   0.92642
 Alpha virt. eigenvalues --    0.93290   0.95179   0.95463   0.95662   0.97237
 Alpha virt. eigenvalues --    0.97929   0.99189   0.99278   1.00153   1.00899
 Alpha virt. eigenvalues --    1.02054   1.02833   1.03908   1.05838   1.06557
 Alpha virt. eigenvalues --    1.07237   1.07634   1.08871   1.09270   1.11084
 Alpha virt. eigenvalues --    1.11871   1.12694   1.13370   1.13926   1.14300
 Alpha virt. eigenvalues --    1.14583   1.15280   1.15496   1.16213   1.16675
 Alpha virt. eigenvalues --    1.17445   1.17763   1.18140   1.19128   1.19774
 Alpha virt. eigenvalues --    1.20547   1.21835   1.22506   1.23205   1.23873
 Alpha virt. eigenvalues --    1.24069   1.24348   1.24745   1.26595   1.27185
 Alpha virt. eigenvalues --    1.29247   1.29323   1.30228   1.31261   1.34960
 Alpha virt. eigenvalues --    1.39008   1.40148   1.41409   1.42593   1.42970
 Alpha virt. eigenvalues --    1.44039   1.44738   1.46674   1.47322   1.47946
 Alpha virt. eigenvalues --    1.48611   1.50134   1.50597   1.52962   1.54643
 Alpha virt. eigenvalues --    1.55303   1.57041   1.57954   1.59098   1.59318
 Alpha virt. eigenvalues --    1.60326   1.60926   1.61823   1.62209   1.64564
 Alpha virt. eigenvalues --    1.65000   1.65813   1.66126   1.68224   1.70211
 Alpha virt. eigenvalues --    1.70332   1.72361   1.73819   1.74193   1.74335
 Alpha virt. eigenvalues --    1.75549   1.76298   1.77689   1.79825   1.80268
 Alpha virt. eigenvalues --    1.80504   1.81241   1.81544   1.82166   1.82858
 Alpha virt. eigenvalues --    1.83460   1.87846   1.88073   1.89502   1.89554
 Alpha virt. eigenvalues --    1.89697   1.89756   1.90682   1.92719   1.92817
 Alpha virt. eigenvalues --    1.94009   1.94730   1.95367   1.95651   1.96696
 Alpha virt. eigenvalues --    1.97045   1.97127   2.01720   2.02177   2.06141
 Alpha virt. eigenvalues --    2.08478   2.08851   2.09367   2.11024   2.11680
 Alpha virt. eigenvalues --    2.12723   2.17062   2.17802   2.18179   2.20517
 Alpha virt. eigenvalues --    2.23131   2.24609   2.24977   2.25961   2.27091
 Alpha virt. eigenvalues --    2.30252   2.30987   2.31809   2.32791   2.34656
 Alpha virt. eigenvalues --    2.35399   2.36027   2.36688   2.37815   2.38155
 Alpha virt. eigenvalues --    2.38402   2.39787   2.40057   2.40510   2.44356
 Alpha virt. eigenvalues --    2.44446   2.45047   2.46713   2.47199   2.47780
 Alpha virt. eigenvalues --    2.51452   2.51489   2.52454   2.52809   2.54574
 Alpha virt. eigenvalues --    2.54981   2.55864   2.56250   2.58282   2.59138
 Alpha virt. eigenvalues --    2.62193   2.62932   2.63922   2.64488   2.65674
 Alpha virt. eigenvalues --    2.67727   2.69527   2.72022   2.73618   2.74350
 Alpha virt. eigenvalues --    2.75610   2.76159   2.78286   2.83749   2.84236
 Alpha virt. eigenvalues --    2.86396   2.88138   2.88420   2.88701   2.89543
 Alpha virt. eigenvalues --    2.89982   2.92959   2.93053   2.93736   2.95110
 Alpha virt. eigenvalues --    2.98150   2.98216   2.98704   3.00687   3.00840
 Alpha virt. eigenvalues --    3.01412   3.04156   3.07599   3.09824   3.09988
 Alpha virt. eigenvalues --    3.13732   3.18611   3.18863   3.19330   3.20132
 Alpha virt. eigenvalues --    3.20551   3.21926   3.24449   3.25767   3.25992
 Alpha virt. eigenvalues --    3.27130   3.27294   3.27896   3.30523   3.30931
 Alpha virt. eigenvalues --    3.32517   3.32620   3.35232   3.35813   3.36785
 Alpha virt. eigenvalues --    3.36998   3.37369   3.42734   3.43059   3.43304
 Alpha virt. eigenvalues --    3.45026   3.53513   3.54095   3.54314   3.55219
 Alpha virt. eigenvalues --    3.67686   3.70208   3.70734   3.71624   3.79545
 Alpha virt. eigenvalues --    3.82065   3.82506   3.87256   3.87655   3.88133
 Alpha virt. eigenvalues --    3.89054   3.90882   4.03023   4.08806   4.09175
 Alpha virt. eigenvalues --    4.22878   4.33095   4.49224   4.51281   4.51750
 Alpha virt. eigenvalues --    4.56714   4.60152   4.64278   4.66894   4.68354
 Alpha virt. eigenvalues --    4.69848   4.75948   4.85206   4.86337   4.86784
 Alpha virt. eigenvalues --    4.86889   4.88622   4.94062   4.94507   4.97913
 Alpha virt. eigenvalues --    5.01533   5.06082   5.13652   5.14428   5.17870
 Alpha virt. eigenvalues --    5.23394   9.66266  23.41183  23.46830  23.47938
 Alpha virt. eigenvalues --   23.56140  23.67594  23.72813  23.73923  23.77452
 Alpha virt. eigenvalues --   23.94366  23.96930  23.97507  23.98901  24.09131
 Alpha virt. eigenvalues --   24.11710  24.12507  24.13275  24.13462  24.14507
 Alpha virt. eigenvalues --   24.15354  24.15937  25.59015  25.68101  25.83115
 Alpha virt. eigenvalues --   35.59881  35.61300  35.61771  35.63463  49.88721
 Alpha virt. eigenvalues --   96.49787 215.62390
  Beta  occ. eigenvalues -- -277.55450-101.47082 -38.43846 -32.86667 -28.52805
  Beta  occ. eigenvalues --  -28.52605 -28.51165 -19.08261 -14.33201 -14.32891
  Beta  occ. eigenvalues --  -14.32605 -14.32278 -10.22254 -10.22046 -10.21623
  Beta  occ. eigenvalues --  -10.21309 -10.21274 -10.21096 -10.21031 -10.20978
  Beta  occ. eigenvalues --  -10.19632 -10.18816 -10.18677 -10.18559 -10.18520
  Beta  occ. eigenvalues --  -10.18481 -10.18292 -10.18166 -10.17788 -10.17716
  Beta  occ. eigenvalues --  -10.17563 -10.17491  -9.38286  -7.14425  -7.13959
  Beta  occ. eigenvalues --   -7.13886  -3.71481  -2.40535  -2.40294  -2.37468
  Beta  occ. eigenvalues --   -2.19980  -1.13761  -1.13659  -1.13582  -0.97897
  Beta  occ. eigenvalues --   -0.96845  -0.96743  -0.95726  -0.84165  -0.83097
  Beta  occ. eigenvalues --   -0.80359  -0.80166  -0.78705  -0.78079  -0.77777
  Beta  occ. eigenvalues --   -0.77320  -0.75391  -0.72631  -0.70822  -0.66602
  Beta  occ. eigenvalues --   -0.66576  -0.60822  -0.58950  -0.58484  -0.58372
  Beta  occ. eigenvalues --   -0.58150  -0.55825  -0.55375  -0.53492  -0.53389
  Beta  occ. eigenvalues --   -0.52399  -0.50835  -0.50771  -0.46511  -0.44815
  Beta  occ. eigenvalues --   -0.44326  -0.43781  -0.43657  -0.43342  -0.42687
  Beta  occ. eigenvalues --   -0.42623  -0.42108  -0.40808  -0.40653  -0.40224
  Beta  occ. eigenvalues --   -0.39891  -0.39197  -0.39143  -0.38688  -0.38466
  Beta  occ. eigenvalues --   -0.37432  -0.34797  -0.34037  -0.33939  -0.33330
  Beta  occ. eigenvalues --   -0.33207  -0.31092  -0.29498  -0.29374  -0.29278
  Beta  occ. eigenvalues --   -0.27343  -0.27064  -0.26581  -0.26036  -0.25458
  Beta  occ. eigenvalues --   -0.24249  -0.23410  -0.22900  -0.20924  -0.20727
  Beta  occ. eigenvalues --   -0.20669
  Beta virt. eigenvalues --   -0.09396  -0.09142  -0.07603  -0.04295  -0.03790
  Beta virt. eigenvalues --   -0.03264  -0.02846   0.01208   0.01435   0.02648
  Beta virt. eigenvalues --    0.03012   0.04650   0.05043   0.05314   0.05917
  Beta virt. eigenvalues --    0.05998   0.06788   0.07076   0.07346   0.07608
  Beta virt. eigenvalues --    0.07889   0.08003   0.08838   0.09515   0.09771
  Beta virt. eigenvalues --    0.09851   0.10302   0.11384   0.11975   0.12287
  Beta virt. eigenvalues --    0.12443   0.12699   0.12993   0.14183   0.15422
  Beta virt. eigenvalues --    0.18433   0.19089   0.20342   0.20707   0.21047
  Beta virt. eigenvalues --    0.22294   0.22579   0.23524   0.23877   0.23975
  Beta virt. eigenvalues --    0.27174   0.27709   0.28357   0.29661   0.30192
  Beta virt. eigenvalues --    0.30355   0.30649   0.30951   0.31581   0.32371
  Beta virt. eigenvalues --    0.32690   0.33659   0.33878   0.34425   0.34647
  Beta virt. eigenvalues --    0.36060   0.36581   0.37083   0.37499   0.37730
  Beta virt. eigenvalues --    0.37949   0.38307   0.38539   0.38759   0.39433
  Beta virt. eigenvalues --    0.39812   0.40079   0.40347   0.40506   0.40570
  Beta virt. eigenvalues --    0.40902   0.41060   0.41516   0.42048   0.42185
  Beta virt. eigenvalues --    0.42447   0.42778   0.43168   0.43609   0.44118
  Beta virt. eigenvalues --    0.44404   0.44567   0.44933   0.46048   0.46805
  Beta virt. eigenvalues --    0.47839   0.48551   0.49457   0.50385   0.50604
  Beta virt. eigenvalues --    0.50786   0.51786   0.52507   0.52531   0.53060
  Beta virt. eigenvalues --    0.53532   0.53776   0.55160   0.55430   0.55702
  Beta virt. eigenvalues --    0.56151   0.56642   0.57174   0.57922   0.58241
  Beta virt. eigenvalues --    0.58368   0.59907   0.60179   0.60807   0.61718
  Beta virt. eigenvalues --    0.62119   0.62172   0.62713   0.63474   0.63805
  Beta virt. eigenvalues --    0.64840   0.65227   0.65453   0.66728   0.67040
  Beta virt. eigenvalues --    0.67319   0.67781   0.68325   0.68775   0.71521
  Beta virt. eigenvalues --    0.71730   0.72617   0.72720   0.73273   0.74041
  Beta virt. eigenvalues --    0.75205   0.75664   0.76657   0.77102   0.77230
  Beta virt. eigenvalues --    0.77676   0.78306   0.78827   0.79859   0.80679
  Beta virt. eigenvalues --    0.81178   0.81859   0.82214   0.82454   0.82736
  Beta virt. eigenvalues --    0.83233   0.84381   0.85117   0.87008   0.88173
  Beta virt. eigenvalues --    0.88955   0.89868   0.90591   0.91258   0.91315
  Beta virt. eigenvalues --    0.92731   0.93388   0.95197   0.95531   0.95797
  Beta virt. eigenvalues --    0.97306   0.97962   0.99205   0.99318   1.00277
  Beta virt. eigenvalues --    1.01180   1.02166   1.02904   1.04011   1.05914
  Beta virt. eigenvalues --    1.06772   1.07243   1.07653   1.09159   1.09542
  Beta virt. eigenvalues --    1.11154   1.11898   1.12783   1.13448   1.13955
  Beta virt. eigenvalues --    1.14329   1.14591   1.15297   1.15504   1.16264
  Beta virt. eigenvalues --    1.16844   1.17639   1.17772   1.18184   1.19295
  Beta virt. eigenvalues --    1.19997   1.20807   1.22014   1.22673   1.23338
  Beta virt. eigenvalues --    1.23958   1.24098   1.24422   1.24742   1.26625
  Beta virt. eigenvalues --    1.27277   1.29242   1.29375   1.30242   1.31382
  Beta virt. eigenvalues --    1.34944   1.39239   1.40641   1.41489   1.42779
  Beta virt. eigenvalues --    1.43157   1.44060   1.44956   1.46820   1.47506
  Beta virt. eigenvalues --    1.47947   1.48689   1.50310   1.50694   1.52986
  Beta virt. eigenvalues --    1.54732   1.55316   1.57330   1.57978   1.59119
  Beta virt. eigenvalues --    1.59516   1.60469   1.60953   1.61822   1.62202
  Beta virt. eigenvalues --    1.64602   1.65013   1.65847   1.66184   1.68358
  Beta virt. eigenvalues --    1.70240   1.70342   1.72890   1.73844   1.74198
  Beta virt. eigenvalues --    1.74427   1.75630   1.76299   1.78125   1.79825
  Beta virt. eigenvalues --    1.80273   1.80504   1.81250   1.81550   1.82308
  Beta virt. eigenvalues --    1.82855   1.83499   1.87846   1.88076   1.89499
  Beta virt. eigenvalues --    1.89562   1.89690   1.89753   1.90719   1.92720
  Beta virt. eigenvalues --    1.92818   1.94005   1.94722   1.95366   1.95652
  Beta virt. eigenvalues --    1.96844   1.97043   1.97343   2.01739   2.02189
  Beta virt. eigenvalues --    2.06135   2.08474   2.08844   2.09358   2.11138
  Beta virt. eigenvalues --    2.11690   2.12724   2.17057   2.17818   2.18182
  Beta virt. eigenvalues --    2.20617   2.23172   2.24769   2.25031   2.25969
  Beta virt. eigenvalues --    2.27409   2.30298   2.30991   2.31818   2.33038
  Beta virt. eigenvalues --    2.34666   2.35396   2.36022   2.36698   2.37781
  Beta virt. eigenvalues --    2.38160   2.38404   2.39777   2.40050   2.40534
  Beta virt. eigenvalues --    2.44349   2.44446   2.45025   2.46694   2.47181
  Beta virt. eigenvalues --    2.47775   2.51424   2.51451   2.52445   2.52779
  Beta virt. eigenvalues --    2.54533   2.54971   2.55839   2.56225   2.58291
  Beta virt. eigenvalues --    2.59126   2.62200   2.62926   2.63907   2.64511
  Beta virt. eigenvalues --    2.65650   2.67719   2.69515   2.72020   2.73601
  Beta virt. eigenvalues --    2.74334   2.75617   2.76158   2.78296   2.83793
  Beta virt. eigenvalues --    2.84231   2.86401   2.88224   2.88415   2.89577
  Beta virt. eigenvalues --    2.89903   2.92273   2.93029   2.93259   2.95104
  Beta virt. eigenvalues --    2.97648   2.98136   2.98332   2.98828   3.00266
  Beta virt. eigenvalues --    3.01404   3.02904   3.04516   3.07590   3.09808
  Beta virt. eigenvalues --    3.10028   3.13738   3.18649   3.18848   3.19359
  Beta virt. eigenvalues --    3.20153   3.20535   3.21922   3.24442   3.25756
  Beta virt. eigenvalues --    3.25994   3.27114   3.27306   3.27985   3.30562
  Beta virt. eigenvalues --    3.30931   3.32514   3.32614   3.35228   3.35809
  Beta virt. eigenvalues --    3.36779   3.36997   3.37366   3.42730   3.43057
  Beta virt. eigenvalues --    3.43303   3.45020   3.53509   3.54093   3.54310
  Beta virt. eigenvalues --    3.55215   3.67673   3.70199   3.70727   3.71617
  Beta virt. eigenvalues --    3.79537   3.82058   3.82497   3.87243   3.87622
  Beta virt. eigenvalues --    3.88124   3.89008   3.90840   4.03005   4.08821
  Beta virt. eigenvalues --    4.09180   4.22871   4.33068   4.49169   4.51305
  Beta virt. eigenvalues --    4.51763   4.56717   4.60148   4.64263   4.66891
  Beta virt. eigenvalues --    4.68356   4.69857   4.76033   4.86025   4.87582
  Beta virt. eigenvalues --    4.89425   4.89576   4.92710   4.96185   4.96756
  Beta virt. eigenvalues --    5.01641   5.02489   5.06361   5.13722   5.14632
  Beta virt. eigenvalues --    5.18596   5.23376   9.66459  23.41181  23.46829
  Beta virt. eigenvalues --   23.47936  23.56139  23.67591  23.72812  23.73920
  Beta virt. eigenvalues --   23.77450  23.94364  23.96929  23.97506  23.98900
  Beta virt. eigenvalues --   24.09129  24.11705  24.12504  24.13272  24.13461
  Beta virt. eigenvalues --   24.14505  24.15353  24.15935  25.59037  25.68298
  Beta virt. eigenvalues --   25.83478  35.59843  35.61259  35.61745  35.63433
  Beta virt. eigenvalues --   49.89701  96.49786 215.62490
          Condensed to atoms (all electrons):
               1          2          3          4          5          6
     1  C    4.711681   0.417832  -0.045283  -0.176591  -0.043360   0.007385
     2  N    0.417832   6.822963   0.004681   0.405367  -0.073253   0.004534
     3  H   -0.045283   0.004681   0.474705   0.008104  -0.039184  -0.003419
     4  C   -0.176591   0.405367   0.008104   4.853332   0.423358  -0.047106
     5  C   -0.043360  -0.073253  -0.039184   0.423358   5.085173   0.396258
     6  H    0.007385   0.004534  -0.003419  -0.047106   0.396258   0.474950
     7  C    0.420777  -0.061123   0.396464  -0.050628   0.559016  -0.036242
     8  C    0.001770  -0.046179  -0.000317   0.439434  -0.077781   0.000122
     9  N   -0.000370  -0.009387   0.000002  -0.012614  -0.000207   0.000001
    10  C    0.000057  -0.000449   0.000000   0.001475   0.000047   0.000002
    11  C   -0.000009   0.000007   0.000000  -0.000912  -0.000006  -0.000001
    12  H    0.000000   0.000002   0.000000   0.000005   0.000000   0.000000
    13  C    0.000049  -0.000174   0.000000   0.007306  -0.000142  -0.000005
    14  H    0.000002   0.000000   0.000000   0.000303  -0.000003   0.000003
    15  C    0.001569  -0.011610   0.000007  -0.055635   0.007258   0.000308
    16  C    0.467604  -0.025730  -0.000044   0.000689   0.009605  -0.000328
    17  H    0.000010   0.000002   0.000000   0.000000   0.000000   0.000000
    18  C   -0.000923   0.000038  -0.000001  -0.000009   0.000001   0.000000
    19  C    0.001597  -0.000123   0.000001   0.000061  -0.000007   0.000000
    20  H    0.000377  -0.000003   0.000005   0.000002  -0.000001   0.000000
    21  N   -0.019723  -0.007891  -0.000004  -0.000164   0.000053   0.000002
    22  C   -0.031921  -0.019087   0.000374   0.001663  -0.000998   0.000007
    23  C    0.007576  -0.000311  -0.000008   0.000053  -0.000003   0.000000
    24  C    0.000005  -0.000030   0.000000   0.000092   0.000001   0.000000
    25  H    0.000000   0.000000   0.000000   0.000000   0.000000   0.000000
    26  C    0.000000   0.000001   0.000000   0.000000   0.000000   0.000000
    27  C    0.000000   0.000001   0.000000   0.000000   0.000000   0.000000
    28  H    0.000000   0.000000   0.000000   0.000000   0.000000   0.000000
    29  C   -0.000004   0.000077   0.000000  -0.000006   0.000000   0.000000
    30  N    0.000100  -0.002829   0.000000   0.000021   0.000001   0.000000
    31  C   -0.000026   0.000134   0.000000   0.000000   0.000000   0.000000
    32  C    0.000103  -0.000077   0.000000   0.000004   0.000000   0.000000
    33  Co  -0.020265   0.181251  -0.000117  -0.022250   0.003002  -0.000012
    34  H   -0.044627   0.004596   0.001704  -0.000547   0.000828  -0.000035
    35  H    0.000001   0.000001   0.000000   0.000000   0.000000   0.000000
    36  H    0.000000   0.000001   0.000000   0.000000   0.000000   0.000000
    37  H   -0.000556   0.004625  -0.000035  -0.044968  -0.006426   0.001744
    38  O    0.000493  -0.016272   0.000002  -0.000229  -0.000072   0.000000
    39  Cl   0.000029   0.001079   0.000000  -0.000439   0.000025   0.000000
    40  Na  -0.000473   0.006020  -0.000115   0.005601   0.001331  -0.000108
               7          8          9         10         11         12
[...]
    11  C    0.000000
    12  H    1.081401   0.000000
    13  C    1.358261   2.198476   0.000000
    14  H    2.200162   2.700077   1.081559   0.000000
    15  C    2.246742   3.307000   1.442375   2.244084   0.000000
    16  C    7.313965   8.368569   6.858727   7.562034   5.418179
    17  H    9.294173  10.114162   9.496997  10.480371   8.270502
    18  C    8.423924   9.292949   8.540072   9.499730   7.273540
    19  C    7.051901   7.888684   7.266560   8.265365   6.077711
    20  H    9.490074  10.470226   9.302433  10.128261   7.903271
    21  N    6.249469   7.185670   6.257432   7.197947   4.965060
    22  C    7.259097   8.254916   7.059821   7.902321   5.668762
    23  C    8.532849   9.488765   8.432045   9.306260   7.065842
    24  C    2.497508   2.848314   3.579575   4.602343   3.536798
    25  H    7.078659   7.399455   7.995952   9.067555   7.449851
    26  C    6.031580   6.405680   6.920897   7.994646   6.372058
    27  C    4.995988   5.227453   6.037815   7.082849   5.735431
    28  H    5.228701   5.236933   6.412501   7.403512   6.335055
    29  C    3.788618   4.230276   4.699214   5.766345   4.299865
    30  N    4.415463   5.098769   4.999831   6.076306   4.206652
    31  C    5.722498   6.322188   6.365133   7.442705   5.559284
    32  C    6.846745   7.542769   7.316655   8.372595   6.319127
    33  Co   4.278386   5.245224   4.291647   5.265573   3.066388
    34  H    8.342769   9.405887   7.815873   8.456943   6.374611
    35  H    7.802292   8.435133   8.344119   9.408286   7.386046
    36  H    2.703402   2.617791   3.994425   4.903253   4.291045
    37  H    4.003430   4.913119   2.714957   2.632518   2.122411
    38  O    5.034696   5.921645   5.043907   5.937528   3.962812
    39  Cl   4.731646   5.389225   5.021758   5.889351   4.375946
    40  Na   4.421850   5.379902   3.918792   4.540132   2.879960
                   16         17         18         19         20
    16  C    0.000000
    17  H    4.599617   0.000000
    18  C    3.575453   1.081361   0.000000
    19  C    3.529155   2.245477   1.444767   0.000000
    20  H    2.848664   2.701860   2.198009   3.307594   0.000000
    21  N    2.449929   3.342736   2.313038   1.368938   3.343597
    22  C    1.385300   3.307507   2.246183   2.182441   2.245956
    23  C    2.498475   2.197913   1.355249   2.246300   1.081359
    24  C    6.824674   7.545052   6.847066   5.403447   8.363972
    25  H    7.549352   5.245414   5.234701   4.235299   7.406675
    26  C    6.851446   5.233938   5.000320   3.791665   7.082662
    27  C    7.312956   6.411123   6.034628   4.694579   7.991712
    28  H    8.368110   7.405704   7.082157   5.763153   9.065255
    29  C    6.306107   6.324278   5.722574   4.286510   7.434942
    30  N    5.032129   5.099077   4.414435   2.969916   6.067720
    31  C    5.407864   4.233555   3.790838   2.457092   5.763246
    32  C    4.826228   2.851392   2.500194   1.385196   4.600907
    33  Co   3.421104   5.225129   4.257311   3.020276   5.232643
    34  H    1.084594   4.899623   3.988734   4.283212   2.615412
    35  H    5.644572   2.621505   2.706219   2.117053   4.904219
    36  H    7.909193   8.436884   7.802048   6.358495   9.399770
    37  H    5.663541   9.418869   8.355244   7.389414   8.454572
    38  O    3.975743   5.566101   4.688298   3.666760   5.544813
    39  Cl   5.735334   6.799980   6.063023   4.943960   7.166313
    40  Na   4.419273   7.362969   6.374786   5.420561   6.744267
                   21         22         23         24         25
    21  N    0.000000
    22  C    1.369973   0.000000
    23  C    2.313703   1.445113   0.000000
    24  C    5.027456   6.302003   7.308768   0.000000
    25  H    5.100965   6.326372   6.412359   4.600825   0.000000
    26  C    4.415760   5.724188   6.035312   3.576270   1.081366
    27  C    4.991574   6.357944   6.916372   2.500229   2.198080
    28  H    6.067885   7.435638   7.991780   2.851609   2.702076
    29  C    4.189054   5.541994   6.357189   1.385144   3.307533
    30  N    2.828414   4.189757   4.991325   2.447342   3.342774
    31  C    2.971229   4.287995   4.694808   3.528403   2.245363
    32  C    2.446600   3.528278   3.576437   4.823988   2.852879
    33  Co   1.995355   3.030210   4.261973   3.409278   5.222916
    34  H    3.391739   2.116417   2.701790   7.909150   8.439150
    35  H    3.389798   4.284576   3.992573   5.644010   2.624572
    36  H    6.075634   7.368657   8.335929   1.084595   4.903398
    37  H    6.097211   6.377700   7.820875   5.657179   9.418796
    38  O    2.908177   3.640546   4.675341   4.232683   5.714608
    39  Cl   4.456188   5.345588   6.270778   3.897450   5.717890
    40  Na   4.308577   4.725519   6.021407   4.772927   7.534882
                   26         27         28         29         30
    26  C    0.000000
    27  C    1.355319   0.000000
    28  H    2.198057   1.081347   0.000000
    29  C    2.246188   1.444978   2.245789   0.000000
    30  N    2.313024   2.313263   3.343088   1.369417   0.000000
    31  C    1.444762   2.246357   3.307634   2.182580   1.369404
    32  C    2.501060   3.576706   4.601365   3.527649   2.445904
    33  Co   4.254391   4.256768   5.226762   3.023897   1.991374
    34  H    7.804711   8.338902   9.402774   7.372043   6.079356
    35  H    2.708330   3.994300   4.906383   4.285036   3.389682
    36  H    3.991671   2.705330   2.620760   2.116517   3.390070
    37  H    8.354968   7.819208   8.452060   6.376271   6.097387
    38  O    4.856147   4.906453   5.799637   3.875673   3.058845
    39  Cl   4.884303   4.634289   5.286749   3.777088   3.542469
    40  Na   6.563900   6.295749   7.063957   5.003320   4.465810
                   31         32         33         34         35
    31  C    0.000000
    32  C    1.384861   0.000000
    33  Co   3.019050   3.397344   0.000000
    34  H    6.361219   5.642800   4.505402   0.000000
    35  H    2.117051   1.084604   4.481366   6.355875   0.000000
    36  H    4.284078   5.642597   4.493539   8.993639   6.357926
    37  H    7.390343   7.926409   4.539861   6.379806   9.010767
    38  O    3.772784   4.019548   2.145692   4.911565   4.952420
    39  Cl   4.254668   4.863331   3.390168   6.662797   5.668612
    40  Na   5.530953   5.919360   2.993955   5.261800   6.931548
                   36         37         38         39         40
    36  H    0.000000
    37  H    6.369774   0.000000
    38  O    5.185675   5.219397   0.000000
    39  Cl   4.587469   5.856113   1.761300   0.000000
    40  Na   5.651778   3.499397   2.139865   2.769222   0.000000
 Symmetry turned off by external request.
 Stoichiometry    C20H12ClCoN4NaO(2)
 Framework group  C1[X(C20H12ClCoN4NaO)]
 Deg. of freedom   114
 Full point group                 C1      NOp   1
 Rotational constants (GHZ):      0.2106401      0.2071780      0.1300905
 Leave Link  202 at Thu Jul  9 12:44:16 2020, MaxMem=  5368709120 cpu:        12.3
 (Enter /usr/public/gaussian/g09.D01/l301.exe)
 Basis read from rwf:  (5D, 7F)
 No pseudopotential information found on rwf file.
   569 basis functions,  1036 primitive gaussians,   601 cartesian basis functions
   112 alpha electrons      111 beta electrons
       nuclear repulsion energy      3500.8823003902 Hartrees.
 IExCor=  402 DFT=T Ex+Corr=B3LYP ExCW=0 ScaHFX=  0.200000
 ScaDFX=  0.800000  0.720000  1.000000  0.810000 ScalE2=  1.000000  1.000000
 IRadAn=      0 IRanWt=     -1 IRanGd=            0 ICorTp=0 IEmpDi=  4
 NAtoms=   40 NActive=   40 NUniq=   40 SFac= 1.00D+00 NAtFMM=   60 NAOKFM=F Big=F
 Integral buffers will be    131072 words long.
 Raffenetti 2 integral format.
 Two-electron integral symmetry is turned off.
 No density basis found on file   724.
 Leave Link  301 at Thu Jul  9 12:44:16 2020, MaxMem=  5368709120 cpu:         4.8
 (Enter /usr/public/gaussian/g09.D01/l302.exe)
 NPDir=0 NMtPBC=     1 NCelOv=     1 NCel=       1 NClECP=     1 NCelD=      1
         NCelK=      1 NCelE2=     1 NClLst=     1 CellRange=     0.0.
 One-electron integrals computed using PRISM.
 NBasis=   569 RedAO= T EigKep=  1.44D-04  NBF=   569
 NBsUse=   569 1.00D-06 EigRej= -1.00D+00 NBFU=   569
 Precomputing XC quadrature grid using
 IXCGrd= 4 IRadAn=           0 IRanWt=          -1 IRanGd=           0 AccXCQ= 0.00D+00.
 Generated NRdTot=       0 NPtTot=           0 NUsed=           0 NTot=          32
 NSgBfM=   594   594   594   594   594 MxSgAt=    40 MxSgA2=    40.
 Leave Link  302 at Thu Jul  9 12:44:17 2020, MaxMem=  5368709120 cpu:        20.6
 (Enter /usr/public/gaussian/g09.D01/l303.exe)
 DipDrv:  MaxL=1.
 Leave Link  303 at Thu Jul  9 12:44:18 2020, MaxMem=  5368709120 cpu:         4.8
 (Enter /usr/public/gaussian/g09.D01/l401.exe)
 Initial guess from the checkpoint file:  "1_intermediate_scan004_TS_irc.chk"
 B after Tr=     0.000015   -0.000003   -0.000012
         Rot=    1.000000    0.000001   -0.000010   -0.000002 Ang=   0.00 deg.
 Guess basis will be translated and rotated to current coordinates.
 JPrj=2 DoOrth=T DoCkMO=T.
 Initial guess <Sx>= 0.0000 <Sy>= 0.0000 <Sz>= 0.5000 <S**2>= 0.7653 S= 0.5076
 Generating alternative initial guess.
 ExpMin= 1.63D-02 ExpMax= 1.06D+05 ExpMxC= 9.90D+03 IAcc=3 IRadAn=         5 AccDes= 0.00D+00
 Harris functional with IExCor=  402 and IRadAn=       5 diagonalized for initial guess.
 HarFok:  IExCor=  402 AccDes= 0.00D+00 IRadAn=         5 IDoV= 1 UseB2=F ITyADJ=14
 ICtDFT=  3500011 ScaDFX=  1.000000  1.000000  1.000000  1.000000
 FoFCou: FMM=F IPFlag=           0 FMFlag=      100000 FMFlg1=           0
         NFxFlg=           0 DoJE=T BraDBF=F KetDBF=T FulRan=T
         wScrn=  0.000000 ICntrl=     500 IOpCl=  0 I1Cent=   200000004 NGrid=           0
         NMat0=    1 NMatS0=      1 NMatT0=    0 NMatD0=    1 NMtDS0=    0 NMtDT0=    0
 Symmetry not used in FoFCou.
 Harris En= -3068.95561884201    
 Leave Link  401 at Thu Jul  9 12:44:23 2020, MaxMem=  5368709120 cpu:       102.0
 (Enter /usr/public/gaussian/g09.D01/l502.exe)
 UHF open shell SCF:
 Using DIIS extrapolation, IDIIS=  1040.
 Two-electron integral symmetry not used.
 IVT=     1117859 IEndB=     1117859 NGot=  5368709120 MDV=  5367969704
 LenX=  5367969704 LenY=  5367607902
 Requested convergence on RMS density matrix=1.00D-05 within 128 cycles.
 Requested convergence on MAX density matrix=1.00D-03.
 Requested convergence on             energy=1.00D-03.
 No special actions if energy rises.
 Fock matrices will be formed incrementally for  20 cycles.

 Cycle   1  Pass 1  IDiag  1:
 FoFJK:  IHMeth= 1 ICntrl=       0 DoSepK=F KAlg= 0 I1Cent=   0 FoldK=F
 IRaf= 730000000 NMat=   1 IRICut=       1 DoRegI=T DoRafI=F ISym2E= 0.
 FoFCou: FMM=F IPFlag=           0 FMFlag=      100000 FMFlg1=           0
         NFxFlg=           0 DoJE=F BraDBF=F KetDBF=F FulRan=T
         wScrn=  0.000000 ICntrl=       0 IOpCl=  1 I1Cent=           0 NGrid=           0
         NMat0=    1 NMatS0=      1 NMatT0=    0 NMatD0=    1 NMtDS0=    0 NMtDT0=    0
 Symmetry not used in FoFCou.
 E= -3069.08129009462    
 DIIS: error= 4.37D-05 at cycle   1 NSaved=   1.
 NSaved= 1 IEnMin= 1 EnMin= -3069.08129009462     IErMin= 1 ErrMin= 4.37D-05
 ErrMax= 4.37D-05  0.00D+00 EMaxC= 1.00D-01 BMatC= 3.96D-06 BMatP= 3.96D-06
 IDIUse=1 WtCom= 1.00D+00 WtEn= 0.00D+00
 Coeff-Com:  0.100D+01
 Coeff:      0.100D+01
 Gap=     0.448 Goal=   None    Shift=    0.000
 Gap=     0.446 Goal=   None    Shift=    0.000
 RMSDP=6.03D-06 MaxDP=2.87D-04              OVMax= 1.27D-03

 SCF Done:  E(UB3LYP) =  -3069.08129009     A.U. after    1 cycles
            NFock=  1  Conv=0.60D-05     -V/T= 2.0027
 <Sx>= 0.0000 <Sy>= 0.0000 <Sz>= 0.5000 <S**2>= 0.7652 S= 0.5076
 <L.S>= 0.000000000000E+00
 KE= 3.060685152884D+03 PE=-1.426198785821D+04 EE= 4.631339114841D+03
 Annihilation of the first spin contaminant:
 S**2 before annihilation     0.7652,   after     0.7502
 Leave Link  502 at Thu Jul  9 12:44:37 2020, MaxMem=  5368709120 cpu:       287.1
 (Enter /usr/public/gaussian/g09.D01/l801.exe)
 DoSCS=F DFT=T ScalE2(SS,OS)=  1.000000  1.000000
 Range of M.O.s used for correlation:     1   569
 NBasis=   569 NAE=   112 NBE=   111 NFC=     0 NFV=     0
 NROrb=    569 NOA=   112 NOB=   111 NVA=   457 NVB=   458

 **** Warning!!: The largest alpha MO coefficient is  0.13149616D+02


 **** Warning!!: The largest beta MO coefficient is  0.12973226D+02

 Leave Link  801 at Thu Jul  9 12:44:38 2020, MaxMem=  5368709120 cpu:         3.6
 (Enter /usr/public/gaussian/g09.D01/l1101.exe)
 Leave Link 1101 at Thu Jul  9 12:44:38 2020, MaxMem=  5368709120 cpu:         0.5
 (Enter /usr/public/gaussian/g09.D01/l1102.exe)
 Symmetrizing basis deriv contribution to polar:
 IMax=3 JMax=2 DiffMx= 0.00D+00
 Leave Link 1102 at Thu Jul  9 12:44:38 2020, MaxMem=  5368709120 cpu:         4.9
 (Enter /usr/public/gaussian/g09.D01/l1110.exe)
 Leave Link 1110 at Thu Jul  9 12:44:38 2020, MaxMem=  5368709120 cpu:         0.5
 (Enter /usr/public/gaussian/g09.D01/l1002.exe)
 Minotr:  UHF open shell wavefunction.
 Leave Link 1002 at Thu Jul  9 12:44:39 2020, MaxMem=  5368709120 cpu:         0.5
 (Enter /usr/public/gaussian/g09.D01/l701.exe)
 Compute integral first derivatives.
 ... and contract with generalized density number  0.
 Leave Link  701 at Thu Jul  9 12:44:39 2020, MaxMem=  5368709120 cpu:         9.3
 (Enter /usr/public/gaussian/g09.D01/l702.exe)
 L702 exits ... SP integral derivatives will be done elsewhere.
 Leave Link  702 at Thu Jul  9 12:44:40 2020, MaxMem=  5368709120 cpu:         0.8
 (Enter /usr/public/gaussian/g09.D01/l703.exe)
 Compute integral first derivatives, UseDBF=F ICtDFT=           0.
 Integral derivatives from FoFJK, PRISM(SPDF).
 Calling FoFJK, ICntrl=      2127 FMM=F ISym2X=0 I1Cent= 0 IOpClX= 1 NMat=1 NMatS=1 NMatT=0.
 FoFJK:  IHMeth= 1 ICntrl=    2127 DoSepK=F KAlg= 0 I1Cent=   0 FoldK=F
 IRaf=         0 NMat=   1 IRICut=       1 DoRegI=T DoRafI=F ISym2E= 0.
 FoFCou: FMM=F IPFlag=           0 FMFlag=      100000 FMFlg1=         800
         NFxFlg=           0 DoJE=F BraDBF=F KetDBF=F FulRan=T
         wScrn=  0.000000 ICntrl=    2127 IOpCl=  1 I1Cent=           0 NGrid=           0
         NMat0=    1 NMatS0=      1 NMatT0=    0 NMatD0=    1 NMtDS0=    0 NMtDT0=    0
 Symmetry not used in FoFCou.
 Leave Link  703 at Thu Jul  9 12:45:09 2020, MaxMem=  5368709120 cpu:       587.4
 (Enter /usr/public/gaussian/g09.D01/l716.exe)
 Dipole        =-1.35233691D+00 8.18571326D-01-1.13258775D-01
 Polarizability= 0.00000000D+00 0.00000000D+00 0.00000000D+00
                 0.00000000D+00 0.00000000D+00 0.00000000D+00
 -------------------------------------------------------------------
 Center     Atomic                   Forces (Hartrees/Bohr)
 Number     Number              X              Y              Z
 -------------------------------------------------------------------
      1        6          -0.000225608    0.000087006   -0.000062142
      2        7          -0.000067003   -0.000349383    0.000003270
      3        1           0.000059599    0.000129976    0.000002697
      4        6          -0.000025878    0.000136311   -0.000047486
      5        6          -0.000176620   -0.000089502   -0.000104203
      6        1          -0.000046207    0.000033806   -0.000014045
      7        6           0.000063169    0.000128058   -0.000024210
      8        6          -0.000051832   -0.000056575   -0.000051968
      9        7          -0.000257550   -0.000257624   -0.000024855
     10        6           0.000083410    0.000052647    0.000047338
     11        6          -0.000004659    0.000034026    0.000021160
     12        1           0.000000938    0.000046447    0.000004944
     13        6          -0.000013921   -0.000021467   -0.000001122
     14        1          -0.000015931    0.000009480   -0.000006550
     15        6           0.000123817    0.000016551    0.000025477
     16        6           0.000119056    0.000163865    0.000019846
     17        1          -0.000054638    0.000043025    0.000016848
     18        6          -0.000035789   -0.000175114    0.000088150
     19        6          -0.000034253   -0.000068513    0.000031372
     20        1           0.000018337    0.000111417    0.000025199
     21        7           0.000219068   -0.000312682   -0.000026580
     22        6           0.000033491   -0.000166628    0.000018587
     23        6           0.000085005   -0.000032215    0.000100641
     24        6           0.000064565    0.000113082    0.000038241
     25        1          -0.000103878    0.000022660   -0.000004736
     26        6          -0.000184798   -0.000009806    0.000008358
     27        6           0.000104475    0.000089726    0.000046161
     28        1           0.000020810    0.000063714    0.000009885
     29        6          -0.000151411    0.000342091    0.000022669
     30        7           0.000340625   -0.000693921    0.000018169
     31        6          -0.000186028    0.000326503    0.000017556
     32        6          -0.000241850   -0.000047049    0.000015930
     33       27          -0.000119823    0.000131222   -0.000090973
     34        1           0.000055902    0.000184190    0.000016135
     35        1          -0.000125761    0.000061940    0.000001307
     36        1           0.000012610    0.000085113    0.000010451
     37        1          -0.000035792    0.000034704   -0.000011586
     38        8           0.000118415    0.000028925    0.000060301
     39       17           0.000686929   -0.000080584   -0.000096995
     40       11          -0.000050992   -0.000115421   -0.000103242
 -------------------------------------------------------------------
 Cartesian Forces:  Max     0.000693921 RMS     0.000142925
 Z-matrix is all fixed cartesians, so copy forces.
 Leave Link  716 at Thu Jul  9 12:45:10 2020, MaxMem=  5368709120 cpu:         3.5
 (Enter /usr/public/gaussian/g09.D01/l123.exe)
 IRC-IRC-IRC-IRC-IRC-IRC-IRC-IRC-IRC-IRC-IRC-IRC-IRC-IRC-IRC-IRC-IRC-IRC
 Error in corrector energy =          -0.0000004585
 Magnitude of corrector gradient =     0.0007917301
 Magnitude of analytic gradient =      0.0015656668
 Magnitude of difference =             0.0013762667
 Angle between gradients (degrees)=   61.4716
 Pt 35 Step number  20 out of a maximum of  20
 Using modified Bulirsch-Stoer corrector integration.
   Using distance weighted interpolants to fit PES.
 PreDWI: IReCr0= 2 IReCr1= 1 IReCr2= 1 IReCr3= 1
 Modified Bulirsch-Stoer Extrapolation Cycles:
    EPS =    0.000010000000000
    Cycle     1 NS=    48
    Cycle     2 NS=    64 Truncation Error =  0.013826719
    Cycle     3 NS=    96 Truncation Error =  0.037211109
    Cycle     4 NS=   128 Truncation Error =  0.037851639
    Cycle     5 NS=   192 Truncation Error =  0.044389157
    Cycle     6 NS=   256 Truncation Error =  0.036314650
    Cycle     7 NS=   384 Truncation Error =  0.012426313
    Cycle     8 NS=   512 Truncation Error =  0.008130006
    Cycle     9 NS=   768 Truncation Error =  0.000018030
    Cycle    10 NS=  1024 Truncation Error =  0.000000023
 BS completed in   10 cycles and    3472 integration steps.
 Maximum DWI energy   std dev =  0.000005226 at pt   219
 Maximum DWI gradient std dev =  0.351374050 at pt   305
 SUMMARY OF CORRECTOR INTEGRATION:
   Predictor End Point Energy = -3069.081277
   Old End Point Energy       = -3069.081290
   Corrected End Point Energy = -3069.081292
   Predictor End-Start Dist.  =     0.436390
   Old End-Start Dist.        =     0.435214
   New End-Start Dist.        =     0.435806
   New End-Old End Dist.      =     0.021125
 CORRECTOR INTEGRATION CONVERGENCE:
   Recorrection delta-x convergence threshold:    0.010000
   Delta-x Convergence NOT Met
 Maximum number of corrector steps exceded.
 Error termination via Lnk1e in /usr/public/gaussian/g09.D01/l123.exe at Thu Jul  9 12:45:11 2020.
 Job cpu time:      22 days  8 hours  5 minutes 17.6 seconds.
 File lengths (MBytes):  RWF=   2813 Int=      0 D2E=      0 Chk=     31 Scr=      1
